 Gaussian 09, Revision A.02,
 Gaussian 09:  EM64L-G09RevA.02 11-Jun-2009

 ----------------------------------------------------------------------
 # td=(nstates=10) cam-b3lyp/6-31+g(d,p) geom=connectivity scf=maxcycle
 =1500
 ----------------------------------------------------------------------

 -------------------
 Title Card Required
 -------------------
 Symbolic Z-matrix:
 Charge =  0 Multiplicity = 1

                         Standard orientation:
 ---------------------------------------------------------------------
 Center     Atomic      Atomic             Coordinates (Angstroms)
 Number     Number       Type             X           Y           Z
 ---------------------------------------------------------------------
      1          7           0        1.151242    1.777313   -0.181955
      2          6           0       -0.265330    1.794898   -0.176856
      3          6           0        1.690432    0.493967   -0.179277
      4          6           0        0.608981   -0.378230   -0.175143
      5          6           0       -0.608981    0.378230   -0.175143
      6          6           0       -1.690432   -0.493966   -0.179278
      7          6           0        0.265330   -1.794897   -0.176856
      8          7           0       -1.151242   -1.777312   -0.181956
      9          8           0       -0.929162    2.828804   -0.173237
     10          8           0        0.929162   -2.828803   -0.173237
     11          1           0       -1.674548   -2.639267   -0.172173
     12          1           0        1.674548    2.639268   -0.172172
     13          6           0       -3.119926   -0.244923   -0.181827
     14          6           0       -3.608652    1.081160   -0.159632
     15          6           0       -4.062021   -1.294778   -0.202280
     16          6           0       -4.972166    1.333387   -0.152722
     17          1           0       -2.907779    1.910786   -0.137708
     18          6           0       -5.425302   -1.035224   -0.205262
     19          1           0       -3.741284   -2.331718   -0.227345
     20          6           0       -5.918297    0.285800   -0.180611
     21          1           0       -5.311147    2.362931   -0.106441
     22          1           0       -6.118257   -1.870129   -0.244231
     23          6           0        3.119926    0.244924   -0.181826
     24          6           0        3.608651   -1.081159   -0.159631
     25          6           0        4.062021    1.294778   -0.202279
     26          6           0        4.972166   -1.333386   -0.152720
     27          1           0        2.907779   -1.910785   -0.137707
     28          6           0        5.425302    1.035225   -0.205261
     29          1           0        3.741284    2.331719   -0.227344
     30          6           0        5.918297   -0.285800   -0.180609
     31          1           0        5.311147   -2.362931   -0.106439
     32          1           0        6.118257    1.870129   -0.244230
     33          6           0       -7.351461    0.573519   -0.185053
     34          6           0       -7.991934    1.751398   -0.519644
     35         16           0       -8.535671   -0.635755    0.276728
     36          6           0       -9.404527    1.684432   -0.418704
     37          1           0       -7.463807    2.633030   -0.863725
     38          6           0       -9.875647    0.454746   -0.004637
     39          1           0      -10.060551    2.507182   -0.679031
     40          6           0        7.351461   -0.573519   -0.185051
     41          6           0        7.991933   -1.751398   -0.519642
     42         16           0        8.535671    0.635755    0.276729
     43          6           0        9.404526   -1.684433   -0.418703
     44          1           0        7.463806   -2.633030   -0.863723
     45          6           0        9.875647   -0.454747   -0.004636
     46          1           0       10.060549   -2.507183   -0.679029
     47          6           0       11.266042   -0.034065    0.208445
     48          6           0       11.664114    1.307164    0.050535
     49          6           0       12.243157   -0.980337    0.575561
     50          6           0       12.991253    1.687049    0.249476
     51          1           0       10.933858    2.052728   -0.250459
     52          6           0       13.570971   -0.599513    0.763489
     53          1           0       11.953141   -2.014234    0.734674
     54          6           0       13.952409    0.736203    0.603386
     55          1           0       13.276033    2.726997    0.118482
     56          1           0       14.306890   -1.345701    1.048959
     57          1           0       14.985908    1.032667    0.755391
     58          6           0      -11.266042    0.034064    0.208445
     59          6           0      -11.664114   -1.307165    0.050534
     60          6           0      -12.243156    0.980335    0.575564
     61          6           0      -12.991253   -1.687050    0.249475
     62          1           0      -10.933859   -2.052729   -0.250463
     63          6           0      -13.570970    0.599511    0.763493
     64          1           0      -11.953140    2.014232    0.734678
     65          6           0      -13.952409   -0.736204    0.603388
     66          1           0      -13.276034   -2.726997    0.118480
     67          1           0      -14.306889    1.345699    1.048965
     68          1           0      -14.985907   -1.032668    0.755394
 ---------------------------------------------------------------------

 SCF Done:  E(RCAM-B3LYP) =  -2518.00843530     A.U. after   22 cycles

 Excitation energies and oscillator strengths:

 Excited State   1:      Singlet-A      2.5347 eV  489.15 nm  f=1.7351  <S**2>=0.000
     155 ->158        -0.10041
     156 ->159        -0.12105
     157 ->158         0.68093
 This state for optimization and/or second-order correction.
 Copying the excited state density for this state as the 1-particle RhoCI density.

 Excited State   2:      Singlet-A      3.5182 eV  352.41 nm  f=0.0033  <S**2>=0.000
     150 ->158         0.11039
     155 ->159        -0.17376
     156 ->158         0.54922
     156 ->160        -0.14458
     157 ->159        -0.33509

 Excited State   3:      Singlet-A      3.6682 eV  338.00 nm  f=1.1352  <S**2>=0.000
     149 ->158        -0.15128
     155 ->158         0.58366
     156 ->159        -0.29065
     157 ->160        -0.17268

 Excited State   4:      Singlet-A      3.8824 eV  319.35 nm  f=0.0003  <S**2>=0.000
     145 ->158        -0.25333
     148 ->158        -0.20698
     150 ->158         0.15657
     156 ->158         0.24728
     156 ->160         0.12538
     157 ->159         0.47009
     157 ->161         0.10748

 Excited State   5:      Singlet-A      3.9485 eV  314.01 nm  f=0.0000  <S**2>=0.000
     145 ->158         0.35295
     145 ->160         0.10766
     148 ->158         0.36321
     150 ->158        -0.13397
     152 ->158        -0.11559
     155 ->159        -0.12007
     156 ->158         0.22693
     157 ->159         0.27763
     157 ->161         0.11715

 Excited State   6:      Singlet-A      4.0122 eV  309.02 nm  f=0.0001  <S**2>=0.000
     146 ->158         0.64282
     146 ->160         0.17863
     146 ->168         0.10047

 Excited State   7:      Singlet-A      4.3038 eV  288.08 nm  f=0.1429  <S**2>=0.000
     149 ->158        -0.10068
     155 ->158         0.27292
     155 ->160         0.16783
     156 ->159         0.27073
     156 ->161        -0.17236
     157 ->160         0.48147

 Excited State   8:      Singlet-A      4.4075 eV  281.30 nm  f=0.0004  <S**2>=0.000
     145 ->158         0.33869
     147 ->159        -0.16272
     148 ->158        -0.20382
     152 ->158         0.11195
     154 ->158        -0.14198
     155 ->159         0.13001
     156 ->160         0.16354
     156 ->162        -0.15029
     157 ->161        -0.27977
     157 ->163        -0.26984

 Excited State   9:      Singlet-A      4.4329 eV  279.69 nm  f=0.0257  <S**2>=0.000
     145 ->159        -0.10491
     147 ->158         0.44608
     148 ->159         0.15331
     151 ->158        -0.11653
     153 ->158        -0.13154
     156 ->163        -0.16402
     157 ->162        -0.34753

 Excited State  10:      Singlet-A      4.4593 eV  278.03 nm  f=0.0001  <S**2>=0.000
     144 ->158         0.61276
     144 ->160         0.17393
     144 ->168         0.10159
     146 ->159         0.14256
     146 ->161         0.13557

 The electronic state is 1-A.
 Alpha  occ. eigenvalues --  -88.99540 -88.99540 -19.21339 -19.21338 -14.46631
 Alpha  occ. eigenvalues --  -14.46631 -10.38753 -10.38753 -10.35113 -10.35113
 Alpha  occ. eigenvalues --  -10.31375 -10.31375 -10.31314 -10.31314 -10.30627
 Alpha  occ. eigenvalues --  -10.30627 -10.30166 -10.30165 -10.29692 -10.29691
 Alpha  occ. eigenvalues --  -10.29506 -10.29506 -10.28787 -10.28787 -10.28334
 Alpha  occ. eigenvalues --  -10.28334 -10.28282 -10.28282 -10.28198 -10.28198
 Alpha  occ. eigenvalues --  -10.28054 -10.28054 -10.28048 -10.28048 -10.28043
 Alpha  occ. eigenvalues --  -10.28043 -10.27975 -10.27975 -10.27960 -10.27960
 Alpha  occ. eigenvalues --  -10.27857 -10.27857 -10.27423 -10.27381  -8.05525
 Alpha  occ. eigenvalues --   -8.05525  -6.02058  -6.02058  -6.01669  -6.01669
 Alpha  occ. eigenvalues --   -6.01303  -6.01303  -1.13815  -1.13243  -1.06618
 Alpha  occ. eigenvalues --   -1.05304  -0.98842  -0.98837  -0.96438  -0.96418
 Alpha  occ. eigenvalues --   -0.94905  -0.94905  -0.89874  -0.89372  -0.89039
 Alpha  occ. eigenvalues --   -0.86273  -0.85941  -0.85078  -0.84956  -0.84198
 Alpha  occ. eigenvalues --   -0.84168  -0.82964  -0.82555  -0.81842  -0.80727
 Alpha  occ. eigenvalues --   -0.78482  -0.76449  -0.76269  -0.72257  -0.71018
 Alpha  occ. eigenvalues --   -0.70883  -0.70822  -0.69699  -0.69470  -0.69039
 Alpha  occ. eigenvalues --   -0.68451  -0.65345  -0.63936  -0.63718  -0.63141
 Alpha  occ. eigenvalues --   -0.62951  -0.62439  -0.61694  -0.61557  -0.60673
 Alpha  occ. eigenvalues --   -0.60125  -0.57577  -0.57225  -0.56817  -0.54663
 Alpha  occ. eigenvalues --   -0.54658  -0.54566  -0.54248  -0.54227  -0.53575
 Alpha  occ. eigenvalues --   -0.53317  -0.52917  -0.52580  -0.52074  -0.51926
 Alpha  occ. eigenvalues --   -0.51558  -0.50823  -0.50504  -0.50201  -0.50049
 Alpha  occ. eigenvalues --   -0.50024  -0.49716  -0.49668  -0.48632  -0.48616
 Alpha  occ. eigenvalues --   -0.47452  -0.47318  -0.46829  -0.46821  -0.46258
 Alpha  occ. eigenvalues --   -0.45875  -0.45159  -0.44929  -0.44375  -0.44210
 Alpha  occ. eigenvalues --   -0.44025  -0.43191  -0.43187  -0.42361  -0.42356
 Alpha  occ. eigenvalues --   -0.41973  -0.41762  -0.41514  -0.41089  -0.40248
 Alpha  occ. eigenvalues --   -0.40230  -0.36179  -0.35936  -0.34976  -0.33525
 Alpha  occ. eigenvalues --   -0.33194  -0.32985  -0.32674  -0.32550  -0.32403
 Alpha  occ. eigenvalues --   -0.32161  -0.32128  -0.31883  -0.31865  -0.27578
 Alpha  occ. eigenvalues --   -0.26518  -0.23892
 Alpha virt. eigenvalues --   -0.07620  -0.03509  -0.01681   0.00444   0.01672
 Alpha virt. eigenvalues --    0.01673   0.01905   0.01954   0.02095   0.02270
 Alpha virt. eigenvalues --    0.02486   0.02720   0.02845   0.03746   0.03821

 Mulliken atomic charges:
              1
     1  N   -0.411479
     2  C    0.536071
     3  C    0.468338
     4  C   -0.304166
     5  C   -0.304165
     6  C    0.468339
     7  C    0.536070
     8  N   -0.411479
     9  O   -0.545844
    10  O   -0.545844
    11  H    0.298011
    12  H    0.298011
    13  C    0.582780
    14  C   -0.886261
    15  C    0.147956
    16  C   -0.635918
    17  H    0.184683
    18  C   -0.253376
    19  H    0.107526
    20  C    0.589640
    21  H    0.133835
    22  H    0.133765
    23  C    0.582780
    24  C   -0.886263
    25  C    0.147955
    26  C   -0.635916
    27  H    0.184683
    28  C   -0.253375
    29  H    0.107526
    30  C    0.589644
    31  H    0.133835
    32  H    0.133765
    33  C   -0.250203
    34  C    0.029749
    35  S   -0.334693
    36  C    0.116504
    37  H    0.138697
    38  C   -0.235992
    39  H    0.138634
    40  C   -0.250205
    41  C    0.029751
    42  S   -0.334693
    43  C    0.116500
    44  H    0.138697
    45  C   -0.235997
    46  H    0.138634
    47  C    0.758034
    48  C   -0.216673
    49  C   -0.524073
    50  C   -0.178426
    51  H    0.134173
    52  C   -0.099716
    53  H    0.129640
    54  C   -0.159264
    55  H    0.136672
    56  H    0.136221
    57  H    0.135161
    58  C    0.758031
    59  C   -0.216674
    60  C   -0.524079
    61  C   -0.178422
    62  H    0.134173
    63  C   -0.099716
    64  H    0.129640
    65  C   -0.159266
    66  H    0.136672
    67  H    0.136221
    68  H    0.135161
 Sum of Mulliken atomic charges =   0.00000

 Dipole moment (field-independent basis, Debye):
    X=              0.0000    Y=              0.0000    Z=             -0.3433  Tot=              0.3433
 Quadrupole moment (field-independent basis, Debye-Ang):
   XX=           -178.6428   YY=           -257.3435   ZZ=           -283.2972
   XY=              4.9481   XZ=              0.0000   YZ=              0.0000

 Normal termination of Gaussian 09 at Tue Aug 22 04:41:53 2023.
