 Gaussian 09, Revision A.02,
 Gaussian 09:  EM64L-G09RevA.02 11-Jun-2009

 -----------------------------------------------------------
 # opt=tight freq b3lyp/6-31+g(d,p) nosymm geom=connectivity
 -----------------------------------------------------------

 -------
 Energy:
 -------
 Symbolic Z-matrix:
 Charge =  0 Multiplicity = 1

 SCF Done:  E(RB3LYP) =  -2050.37594652     A.U. after   16 cycles
 SCF Done:  E(RB3LYP) =  -2050.37716066     A.U. after   13 cycles
 SCF Done:  E(RB3LYP) =  -2050.37742471     A.U. after   13 cycles
 SCF Done:  E(RB3LYP) =  -2050.37753474     A.U. after   12 cycles
 SCF Done:  E(RB3LYP) =  -2050.37765415     A.U. after   12 cycles
 SCF Done:  E(RB3LYP) =  -2050.37770701     A.U. after   12 cycles
 SCF Done:  E(RB3LYP) =  -2050.37772493     A.U. after   11 cycles
 SCF Done:  E(RB3LYP) =  -2050.37773270     A.U. after   10 cycles
 SCF Done:  E(RB3LYP) =  -2050.37773601     A.U. after   10 cycles
 SCF Done:  E(RB3LYP) =  -2050.37773729     A.U. after   10 cycles
 SCF Done:  E(RB3LYP) =  -2050.37773803     A.U. after    9 cycles
 SCF Done:  E(RB3LYP) =  -2050.37773825     A.U. after    9 cycles
 SCF Done:  E(RB3LYP) =  -2050.37773827     A.U. after    8 cycles
 SCF Done:  E(RB3LYP) =  -2050.37773827     A.U. after    7 cycles
 SCF Done:  E(RB3LYP) =  -2050.37773827     A.U. after    6 cycles
 SCF Done:  E(RB3LYP) =  -2050.37773827     A.U. after    6 cycles
 Optimization completed.
    -- Stationary point found.
 Normal termination of Gaussian 09 at Mon Sep 18 21:42:52 2023.

 ----------------------------------------------------------------------
 #N Geom=AllCheck Guess=TCheck SCRF=Check GenChk RB3LYP/6-31+G(d,p) Fre
 q
 ----------------------------------------------------------------------

 Energy:
 -------
 Redundant internal coordinates taken from checkpoint file:
 /home/nathalia.rosa/DPP-SUB/DPP-SUB-9/DPP-SUB-9-OPT-FREQ.chk
 Charge =  0 Multiplicity = 1

                          Input orientation:
 ---------------------------------------------------------------------
 Center     Atomic      Atomic             Coordinates (Angstroms)
 Number     Number       Type             X           Y           Z
 ---------------------------------------------------------------------
      1          7           0       -1.351578    1.053555   -2.635486
      2          6           0        0.067506    1.053979   -2.672422
      3          6           0       -1.862249    0.724395   -1.381900
      4          6           0       -0.770736    0.495342   -0.555088
      5          6           0        0.426997    0.687952   -1.311485
      6          6           0        1.518511    0.458896   -0.484676
      7          6           0       -0.411244    0.129309    0.805848
      8          7           0        1.007840    0.129747    0.768914
      9          8           0        0.729953    1.317093   -3.672361
     10          8           0       -1.073691   -0.133811    1.805784
     11          1           0        1.579319   -0.090018    1.572714
     12          1           0       -1.923053    1.273254   -3.439307
     13          6           0       -5.599824    0.792393   -1.472786
     14          6           0       -4.298749    0.932174   -2.034701
     15          6           0       -5.282547    1.808234   -3.974740
     16          1           0       -5.090641    1.776715   -5.049171
     17          6           0       -6.505136    0.980073   -3.611712
     18          1           0       -6.371893   -0.060429   -3.936869
     19          6           0       -3.272012    0.673480   -1.135919
     20          6           0       -5.566987    0.439181   -0.149396
     21          1           0       -6.411860    0.271547    0.503034
     22         16           0       -3.947107    0.263669    0.436778
     23          6           0        3.955014    0.251073    0.168108
     24          6           0        5.256087    0.390848   -0.393814
     25          6           0        6.161415    0.203124    1.745098
     26          1           0        6.028200    1.243625    2.070269
     27          6           0        4.938817   -0.625020    2.108132
     28          1           0        4.746923   -0.593494    3.182567
     29          6           0        5.223246    0.744093   -1.717195
     30          1           0        6.068115    0.911727   -2.369629
     31          6           0        2.928274    0.509799   -0.730661
     32         16           0        3.603362    0.919626   -2.303356
     33          8           0       -6.741358    1.014251   -2.196504
     34          8           0       -4.100344    1.272467   -3.346195
     35          1           0       -5.414208    2.849850   -3.656506
     36          1           0       -7.401968    1.391472   -4.079889
     37          8           0        3.756616   -0.089242    1.479598
     38          8           0        6.397624    0.168957    0.329890
     39          1           0        5.070462   -1.666640    1.789904
     40          1           0        7.058242   -0.208300    2.213265
 ---------------------------------------------------------------------

 SCF Done:  E(RB3LYP) =  -2050.37773827     A.U. after    1 cycles

 Alpha  occ. eigenvalues --  -88.92658 -88.92658 -19.22037 -19.22037 -19.20809
 Alpha  occ. eigenvalues --  -19.20809 -19.12454 -19.12454 -14.37747 -14.37747
 Alpha  occ. eigenvalues --  -10.29389 -10.29389 -10.27836 -10.27836 -10.27673
 Alpha  occ. eigenvalues --  -10.27673 -10.27507 -10.27507 -10.26961 -10.26961
 Alpha  occ. eigenvalues --  -10.26689 -10.26689 -10.24276 -10.24276 -10.22975
 Alpha  occ. eigenvalues --  -10.22975 -10.18854 -10.18809  -7.98415  -7.98415
 Alpha  occ. eigenvalues --   -5.94873  -5.94872  -5.94499  -5.94499  -5.94073
 Alpha  occ. eigenvalues --   -5.94073  -1.11467  -1.11466  -1.07975  -1.07974
 Alpha  occ. eigenvalues --   -1.03980  -1.03443  -0.97047  -0.95737  -0.89892
 Alpha  occ. eigenvalues --   -0.89834  -0.80748  -0.80182  -0.79720  -0.78471
 Alpha  occ. eigenvalues --   -0.77791  -0.73378  -0.72966  -0.72129  -0.70227
 Alpha  occ. eigenvalues --   -0.67317  -0.66616  -0.65786  -0.62312  -0.60078
 Alpha  occ. eigenvalues --   -0.57214  -0.57113  -0.56749  -0.56547  -0.56013
 Alpha  occ. eigenvalues --   -0.54214  -0.53481  -0.52956  -0.51181  -0.51053
 Alpha  occ. eigenvalues --   -0.48074  -0.47459  -0.47254  -0.46743  -0.46692
 Alpha  occ. eigenvalues --   -0.46027  -0.45470  -0.45231  -0.44777  -0.43473
 Alpha  occ. eigenvalues --   -0.43218  -0.42965  -0.42693  -0.42481  -0.41988
 Alpha  occ. eigenvalues --   -0.41653  -0.41013  -0.40853  -0.38800  -0.36693
 Alpha  occ. eigenvalues --   -0.36412  -0.36325  -0.36226  -0.35911  -0.35069
 Alpha  occ. eigenvalues --   -0.33631  -0.33583  -0.32544  -0.32497  -0.26903
 Alpha  occ. eigenvalues --   -0.26002  -0.25389  -0.25207  -0.24793  -0.23635
 Alpha  occ. eigenvalues --   -0.23629  -0.18519
 Alpha virt. eigenvalues --   -0.09453  -0.04310  -0.00888  -0.00868  -0.00411
 Alpha virt. eigenvalues --    0.00286   0.00327   0.00768   0.00858   0.01495
 Alpha virt. eigenvalues --    0.01559   0.01899   0.02247   0.02358   0.02722

 Mulliken atomic charges:
              1
     1  N   -0.469232
     2  C    0.786248
     3  C    0.817089
     4  C   -0.619459
     5  C   -0.619461
     6  C    0.817072
     7  C    0.786246
     8  N   -0.469231
     9  O   -0.534474
    10  O   -0.534475
    11  H    0.334679
    12  H    0.334679
    13  C    0.025572
    14  C    0.131488
    15  C   -0.028499
    16  H    0.152134
    17  C   -0.015780
    18  H    0.158546
    19  C   -0.415164
    20  C   -0.270479
    21  H    0.167996
    22  S    0.208442
    23  C    0.131494
    24  C    0.025578
    25  C   -0.015779
    26  H    0.158545
    27  C   -0.028497
    28  H    0.152134
    29  C   -0.270474
    30  H    0.167996
    31  C   -0.415167
    32  S    0.208440
    33  O   -0.369735
    34  O   -0.373919
    35  H    0.163542
    36  H    0.151008
    37  O   -0.373919
    38  O   -0.369734
    39  H    0.163542
    40  H    0.151008
 Sum of Mulliken atomic charges =   0.00000

 Dipole moment (field-independent basis, Debye):
    X=              0.0000    Y=             -0.0001    Z=             -0.0001  Tot=              0.0001
 Quadrupole moment (field-independent basis, Debye-Ang):
   XX=           -121.1403   YY=           -173.8275   ZZ=           -163.5931
   XY=            -10.4617   XZ=             44.5926   YZ=             -3.9076

  Exact polarizability: 602.634 -24.120 161.971  76.622 -46.464 317.847
 Approx polarizability: 896.660 -45.203 268.723 132.801 -97.783 605.202

                     1                      2                      3
                     A                      A                      A
 Frequencies --    17.5721                33.8861                43.9717
 Red. masses --     6.5994                 7.3998                 7.6628
 Frc consts  --     0.0012                 0.0050                 0.0087
 IR Inten    --     2.8409                 0.0211                 0.0000

                     4                      5                      6
                     A                      A                      A
 Frequencies --    49.7317                69.2572               103.3074
 Red. masses --     7.5745                 7.3474                 8.1368
 Frc consts  --     0.0110                 0.0208                 0.0512
 IR Inten    --     1.2303                 0.0000                 0.0000

                     7                      8                      9
                     A                      A                      A
 Frequencies --   105.1907               114.5394               115.3112
 Red. masses --     6.5818                 4.5948                 4.0971
 Frc consts  --     0.0429                 0.0355                 0.0321
 IR Inten    --     0.3652                17.9115                 0.0004

                    10                     11                     12
                     A                      A                      A
 Frequencies --   140.3391               147.6297               165.3128
 Red. masses --    10.3063                 8.8367                 7.5588
 Frc consts  --     0.1196                 0.1135                 0.1217
 IR Inten    --     0.3302                 0.0000                 0.0000

                    13                     14                     15
                     A                      A                      A
 Frequencies --   169.7064               214.2323               240.6650
 Red. masses --     9.7254                 8.6706                12.5514
 Frc consts  --     0.1650                 0.2345                 0.4283
 IR Inten    --     3.3406                 0.8130                 0.0000

                    16                     17                     18
                     A                      A                      A
 Frequencies --   250.8504               255.6851               295.6814
 Red. masses --     5.1455                 4.4762                12.2466
 Frc consts  --     0.1908                 0.1724                 0.6308
 IR Inten    --     0.0000                 0.3153                 5.0041

                    19                     20                     21
                     A                      A                      A
 Frequencies --   313.5999               323.2282               337.5759
 Red. masses --    11.2782                10.3652                 2.5279
 Frc consts  --     0.6535                 0.6380                 0.1697
 IR Inten    --     0.0000                 1.7761                 0.0000

                    22                     23                     24
                     A                      A                      A
 Frequencies --   339.4910               348.3643               406.1666
 Red. masses --     2.7458                 7.8544                 7.6540
 Frc consts  --     0.1865                 0.5616                 0.7440
 IR Inten    --    13.2853                17.0206                 0.0000

                    25                     26                     27
                     A                      A                      A
 Frequencies --   417.8617               439.2620               441.3109
 Red. masses --     7.3495                 8.6670                 8.0407
 Frc consts  --     0.7561                 0.9853                 0.9226
 IR Inten    --     0.0000                 0.0000                 5.0715

                    28                     29                     30
                     A                      A                      A
 Frequencies --   448.5852               468.8101               486.6411
 Red. masses --     9.8780                11.0618                 4.4358
 Frc consts  --     1.1711                 1.4324                 0.6189
 IR Inten    --    38.7944                 0.0000                11.0443

                    31                     32                     33
                     A                      A                      A
 Frequencies --   521.8009               532.6294               535.4732
 Red. masses --     5.1962                 3.1306                 3.0370
 Frc consts  --     0.8336                 0.5233                 0.5131
 IR Inten    --     0.0000                 0.0000                15.3760

                    34                     35                     36
                     A                      A                      A
 Frequencies --   548.7351               561.2974               567.3006
 Red. masses --     1.2214                 1.4302                 4.6912
 Frc consts  --     0.2167                 0.2655                 0.8895
 IR Inten    --   111.3641                 0.0000                 0.0000

                    37                     38                     39
                     A                      A                      A
 Frequencies --   570.6081               623.9501               636.4107
 Red. masses --     8.3251                 6.3925                 3.9539
 Frc consts  --     1.5970                 1.4663                 0.9435
 IR Inten    --    11.6326                 0.0000                37.8806

                    40                     41                     42
                     A                      A                      A
 Frequencies --   673.5906               688.1201               690.7435
 Red. masses --     3.8170                 7.2379                 7.4756
 Frc consts  --     1.0204                 2.0192                 2.1015
 IR Inten    --     0.0000                 0.0000                 5.3727

                    43                     44                     45
                     A                      A                      A
 Frequencies --   697.8019               710.3029               713.0789
 Red. masses --     3.3825                 3.4230                 5.9043
 Frc consts  --     0.9704                 1.0175                 1.7688
 IR Inten    --    45.6693                 0.0000                 0.0000

                    46                     47                     48
                     A                      A                      A
 Frequencies --   721.8866               730.8663               738.6991
 Red. masses --     4.8430                 3.6259                 1.6323
 Frc consts  --     1.4870                 1.1412                 0.5248
 IR Inten    --    13.6875                 0.2686                 0.0001

                    49                     50                     51
                     A                      A                      A
 Frequencies --   741.7937               768.6111               781.3084
 Red. masses --     2.2041                 9.0853                10.6033
 Frc consts  --     0.7146                 3.1623                 3.8136
 IR Inten    --    94.2390                13.8119                 0.0000

                    52                     53                     54
                     A                      A                      A
 Frequencies --   811.3902               848.4243               851.1563
 Red. masses --     7.4717                 3.9537                 4.1399
 Frc consts  --     2.8982                 1.6768                 1.7671
 IR Inten    --     0.0000                49.3902                 0.0000

                    55                     56                     57
                     A                      A                      A
 Frequencies --   868.8747               881.5687               922.4365
 Red. masses --     4.0998                 4.0398                 2.5228
 Frc consts  --     1.8236                 1.8498                 1.2648
 IR Inten    --     0.9467                 0.0000               104.3596

                    58                     59                     60
                     A                      A                      A
 Frequencies --   924.5347               962.4616               980.6022
 Red. masses --     2.6666                 5.2209                 4.2227
 Frc consts  --     1.3429                 2.8494                 2.3924
 IR Inten    --     0.0000                86.2620                 0.0000

                    61                     62                     63
                     A                      A                      A
 Frequencies --   996.7325              1009.0074              1043.7224
 Red. masses --     3.7734                 3.9594                 3.4225
 Frc consts  --     2.2087                 2.3750                 2.1967
 IR Inten    --    46.0509                 0.0000                73.1446

                    64                     65                     66
                     A                      A                      A
 Frequencies --  1046.1204              1089.1376              1090.6346
 Red. masses --     3.3305                 4.2468                 4.0746
 Frc consts  --     2.1475                 2.9681                 2.8556
 IR Inten    --     0.0000               526.6162                 0.0015

                    67                     68                     69
                     A                      A                      A
 Frequencies --  1119.5000              1121.0228              1122.4670
 Red. masses --     2.9733                 1.9785                 2.9614
 Frc consts  --     2.1955                 1.4649                 2.1983
 IR Inten    --    46.0015                 0.0000                63.2812

                    70                     71                     72
                     A                      A                      A
 Frequencies --  1169.6933              1172.8332              1196.6687
 Red. masses --     5.5417                 6.7815                 3.5115
 Frc consts  --     4.4672                 5.4960                 2.9627
 IR Inten    --     0.0000               127.0117                73.8174

                    73                     74                     75
                     A                      A                      A
 Frequencies --  1207.7942              1217.0033              1267.2162
 Red. masses --     1.6835                 2.1394                 1.1870
 Frc consts  --     1.4469                 1.8669                 1.1231
 IR Inten    --     0.0000               263.2742                 0.0000

                    76                     77                     78
                     A                      A                      A
 Frequencies --  1267.3508              1291.2286              1293.9729
 Red. masses --     1.1899                 2.1355                 1.2019
 Frc consts  --     1.1260                 2.0978                 1.1857
 IR Inten    --     7.7872                 0.0000                67.9596

                    79                     80                     81
                     A                      A                      A
 Frequencies --  1296.8103              1320.2370              1321.8770
 Red. masses --     2.0842                 2.1068                 2.1546
 Frc consts  --     2.0651                 2.1636                 2.2182
 IR Inten    --     0.0000                 0.0000                27.0251

                    82                     83                     84
                     A                      A                      A
 Frequencies --  1364.4717              1392.6003              1392.8315
 Red. masses --     4.9846                 1.4180                 1.4159
 Frc consts  --     5.4677                 1.6202                 1.6184
 IR Inten    --     0.0000                69.8320                 0.0009

                    85                     86                     87
                     A                      A                      A
 Frequencies --  1398.7318              1398.8123              1426.3064
 Red. masses --     1.4201                 1.4662                 4.3192
 Frc consts  --     1.6370                 1.6903                 5.1771
 IR Inten    --   262.9934                 0.2405                 0.0000

                    88                     89                     90
                     A                      A                      A
 Frequencies --  1437.0037              1481.5829              1481.8129
 Red. masses --     3.3943                 4.6673                 4.2664
 Frc consts  --     4.1296                 6.0363                 5.5195
 IR Inten    --   153.4916                 2.8438               376.1049

                    91                     92                     93
                     A                      A                      A
 Frequencies --  1489.5448              1493.5593              1498.5824
 Red. masses --     1.9955                 1.4144                 1.1830
 Frc consts  --     2.6086                 1.8589                 1.5653
 IR Inten    --   216.5937                 0.0001                30.8280

                    94                     95                     96
                     A                      A                      A
 Frequencies --  1498.8131              1511.7833              1518.5145
 Red. masses --     1.1923                 1.9624                 3.0859
 Frc consts  --     1.5781                 2.6425                 4.1924
 IR Inten    --     0.0005               378.6282                 0.0000

                    97                     98                     99
                     A                      A                      A
 Frequencies --  1587.9869              1598.7145              1622.6547
 Red. masses --     7.5683                 8.1162                 8.4364
 Frc consts  --    11.2446                12.2221                13.0876
 IR Inten    --     0.0001               567.8457                 0.0000

                   100                    101                    102
                     A                      A                      A
 Frequencies --  1645.7991              1745.6396              1757.1967
 Red. masses --     9.3603                 9.6207                11.1432
 Frc consts  --    14.9380                17.2729                20.2722
 IR Inten    --   851.2570               943.4157                 0.0000

                   103                    104                    105
                     A                      A                      A
 Frequencies --  3036.6955              3036.7964              3052.5188
 Red. masses --     1.0691                 1.0691                 1.0644
 Frc consts  --     5.8086                 5.8091                 5.8433
 IR Inten    --   108.7052                 0.0010                89.1222

                   106                    107                    108
                     A                      A                      A
 Frequencies --  3052.5726              3131.7372              3131.7719
 Red. masses --     1.0644                 1.0983                 1.0983
 Frc consts  --     5.8437                 6.3468                 6.3469
 IR Inten    --     0.0010                58.3568                 0.2876

                   109                    110                    111
                     A                      A                      A
 Frequencies --  3136.5834              3136.5906              3272.7861
 Red. masses --     1.1023                 1.1022                 1.0942
 Frc consts  --     6.3893                 6.3892                 6.9056
 IR Inten    --    26.1676                 3.9441                16.7588

                   112                    113                    114
                     A                      A                      A
 Frequencies --  3272.8424              3648.4651              3649.6008
 Red. masses --     1.0943                 1.0801                 1.0804
 Frc consts  --     6.9060                 8.4707                 8.4789
 IR Inten    --     0.0374               221.3422                 0.0000

 - Thermochemistry -
 -------------------
 Temperature   298.150 Kelvin.  Pressure   1.00000 Atm.
 Atom     1 has atomic number  7 and mass  14.00307

 Molecular mass:   416.01368 amu.
 Principal axes and moments of inertia in atomic units:
                           1         2         3
     Eigenvalues --  4063.53262********************
           X            0.97615  -0.21700   0.00634
           Y           -0.06317  -0.25599   0.96461
           Z            0.20770   0.94201   0.26359
 This molecule is an asymmetric top.
 Rotational symmetry number  1.
 Warning -- assumption of classical behavior for rotation
           may cause significant error
 Rotational temperatures (Kelvin)      0.02131     0.00335     0.00291
 Rotational constants (GHZ):           0.44413     0.06983     0.06055
 Zero-point vibrational energy     742122.3 (Joules/Mol)
                                  177.37148 (Kcal/Mol)
 Warning -- explicit consideration of  37 degrees of freedom as
           vibrations may cause significant error
 Vibrational temperatures:     25.28    48.75    63.27    71.55    99.65
          (Kelvin)            148.64   151.35   164.80   165.91   201.92
                              212.41   237.85   244.17   308.23   346.26
                              360.92   367.87   425.42   451.20   465.05
                              485.70   488.45   501.22   584.38   601.21
                              632.00   634.95   645.41   674.51   700.17
                              750.75   766.33   770.43   789.51   807.58
                              816.22   820.98   897.72   915.65   969.15
                              990.05   993.82  1003.98  1021.97  1025.96
                             1038.63  1051.55  1062.82  1067.27  1105.86
                             1124.13  1167.41  1220.69  1224.62  1250.12
                             1268.38  1327.18  1330.20  1384.77  1410.87
                             1434.07  1451.73  1501.68  1505.13  1567.02
                             1569.18  1610.71  1612.90  1614.98  1682.93
                             1687.44  1721.74  1737.74  1750.99  1823.24
                             1823.43  1857.79  1861.74  1865.82  1899.52
                             1901.88  1963.17  2003.64  2003.97  2012.46
                             2012.58  2052.13  2067.53  2131.66  2132.00
                             2143.12  2148.90  2156.12  2156.46  2175.12
                             2184.80  2284.76  2300.19  2334.64  2367.93
                             2511.58  2528.21  4369.12  4369.27  4391.89
                             4391.97  4505.87  4505.92  4512.84  4512.85
                             4708.80  4708.88  5249.32  5250.96

 Zero-point correction=                           0.282659 (Hartree/Particle)
 Thermal correction to Energy=                    0.305287
 Thermal correction to Enthalpy=                  0.306231
 Thermal correction to Gibbs Free Energy=         0.229373
 Sum of electronic and zero-point Energies=          -2050.095079
 Sum of electronic and thermal Energies=             -2050.072451
 Sum of electronic and thermal Enthalpies=           -2050.071507
 Sum of electronic and thermal Free Energies=        -2050.148365

                     E (Thermal)             CV                S
                      KCal/Mol        Cal/Mol-Kelvin    Cal/Mol-Kelvin
 Total                  191.570             88.184            161.761
 Electronic               0.000              0.000              0.000
 Translational            0.889              2.981             43.967
 Rotational               0.889              2.981             36.391
 Vibrational            189.793             82.223             81.403
 Vibration     1          0.593              1.986              6.891
 Vibration     2          0.594              1.983              5.588
 Vibration     3          0.595              1.980              5.072
 Vibration     4          0.595              1.978              4.828
 Vibration     5          0.598              1.969              4.174
 Vibration     6          0.605              1.947              3.391
 Vibration     7          0.605              1.945              3.356
 Vibration     8          0.607              1.937              3.190
 Vibration     9          0.608              1.937              3.177
 Vibration    10          0.615              1.913              2.799
 Vibration    11          0.617              1.905              2.703
 Vibration    12          0.624              1.885              2.488
 Vibration    13          0.625              1.880              2.439
 Vibration    14          0.644              1.819              2.007
 Vibration    15          0.658              1.778              1.798
 Vibration    16          0.663              1.761              1.725
 Vibration    17          0.666              1.753              1.691
 Vibration    18          0.690              1.682              1.441
 Vibration    19          0.701              1.648              1.343
 Vibration    20          0.708              1.629              1.294
 Vibration    21          0.718              1.600              1.224
 Vibration    22          0.719              1.597              1.215
 Vibration    23          0.726              1.579              1.174
 Vibration    24          0.771              1.457              0.940
 Vibration    25          0.781              1.431              0.899
 Vibration    26          0.799              1.385              0.829
 Vibration    27          0.801              1.380              0.822
 Vibration    28          0.808              1.364              0.800
 Vibration    29          0.826              1.319              0.741
 Vibration    30          0.843              1.280              0.692
 Vibration    31          0.877              1.202              0.606
 Vibration    32          0.888              1.178              0.581
 Vibration    33          0.890              1.172              0.575
 Vibration    34          0.904              1.142              0.547
 Vibration    35          0.917              1.115              0.521
 Vibration    36          0.923              1.102              0.509
 Vibration    37          0.927              1.095              0.503

 Normal termination of Gaussian 09 at Tue Sep 19 07:42:32 2023.
