 Gaussian 09, Revision A.02,
 Gaussian 09:  EM64L-G09RevA.02 11-Jun-2009

 ----------------------------------------------------------------
 # td=(nstates=10) cam-b3lyp/6-31+g(d,p) nosymm geom=connectivity
 ----------------------------------------------------------------

 -------
 Energy:
 -------
 Symbolic Z-matrix:
 Charge =  0 Multiplicity = 1

                          Input orientation:
 ---------------------------------------------------------------------
 Center     Atomic      Atomic             Coordinates (Angstroms)
 Number     Number       Type             X           Y           Z
 ---------------------------------------------------------------------
      1          7           0       -1.351578    1.053555   -2.635486
      2          6           0        0.067506    1.053979   -2.672422
      3          6           0       -1.862249    0.724395   -1.381900
      4          6           0       -0.770736    0.495342   -0.555088
      5          6           0        0.426997    0.687952   -1.311485
      6          6           0        1.518511    0.458896   -0.484676
      7          6           0       -0.411244    0.129309    0.805848
      8          7           0        1.007840    0.129747    0.768914
      9          8           0        0.729953    1.317093   -3.672361
     10          8           0       -1.073691   -0.133811    1.805784
     11          1           0        1.579319   -0.090018    1.572714
     12          1           0       -1.923053    1.273254   -3.439307
     13          6           0       -5.599824    0.792393   -1.472786
     14          6           0       -4.298749    0.932174   -2.034701
     15          6           0       -5.282547    1.808234   -3.974740
     16          1           0       -5.090641    1.776715   -5.049171
     17          6           0       -6.505136    0.980073   -3.611712
     18          1           0       -6.371893   -0.060429   -3.936869
     19          6           0       -3.272012    0.673480   -1.135919
     20          6           0       -5.566987    0.439181   -0.149396
     21          1           0       -6.411860    0.271547    0.503034
     22         16           0       -3.947107    0.263669    0.436778
     23          6           0        3.955014    0.251073    0.168108
     24          6           0        5.256087    0.390848   -0.393814
     25          6           0        6.161415    0.203124    1.745098
     26          1           0        6.028200    1.243625    2.070269
     27          6           0        4.938817   -0.625020    2.108132
     28          1           0        4.746923   -0.593494    3.182567
     29          6           0        5.223246    0.744093   -1.717195
     30          1           0        6.068115    0.911727   -2.369629
     31          6           0        2.928274    0.509799   -0.730661
     32         16           0        3.603362    0.919626   -2.303356
     33          8           0       -6.741358    1.014251   -2.196504
     34          8           0       -4.100344    1.272467   -3.346195
     35          1           0       -5.414208    2.849850   -3.656506
     36          1           0       -7.401968    1.391472   -4.079889
     37          8           0        3.756616   -0.089242    1.479598
     38          8           0        6.397624    0.168957    0.329890
     39          1           0        5.070462   -1.666640    1.789904
     40          1           0        7.058242   -0.208300    2.213265
 ---------------------------------------------------------------------

 SCF Done:  E(RCAM-B3LYP) =  -2049.79944737     A.U. after   16 cycles

 Excitation energies and oscillator strengths:

 Excited state symmetry could not be determined.
 Excited State   1:      Singlet-?Sym    2.6345 eV  470.62 nm  f=0.7035  <S**2>=0.000
     107 ->108         0.70316
 This state for optimization and/or second-order correction.
 Copying the excited state density for this state as the 1-particle RhoCI density.

 Excited state symmetry could not be determined.
 Excited State   2:      Singlet-?Sym    3.9102 eV  317.08 nm  f=0.0000  <S**2>=0.000
     101 ->108         0.56528
     101 ->116        -0.11526
     104 ->108         0.23027
     105 ->108         0.27040
     107 ->109         0.16250

 Excited state symmetry could not be determined.
 Excited State   3:      Singlet-?Sym    4.0025 eV  309.77 nm  f=0.0002  <S**2>=0.000
     100 ->109         0.11661
     102 ->108         0.66419
     102 ->116        -0.14243

 Excited state symmetry could not be determined.
 Excited State   4:      Singlet-?Sym    4.0356 eV  307.22 nm  f=0.0000  <S**2>=0.000
     101 ->108        -0.21922
     105 ->108         0.11492
     107 ->109         0.64260

 Excited state symmetry could not be determined.
 Excited State   5:      Singlet-?Sym    4.1184 eV  301.05 nm  f=0.1186  <S**2>=0.000
     105 ->109        -0.20595
     106 ->108         0.66504

 Excited state symmetry could not be determined.
 Excited State   6:      Singlet-?Sym    4.1398 eV  299.49 nm  f=0.0000  <S**2>=0.000
     101 ->108        -0.18803
     104 ->108        -0.14445
     105 ->108         0.59717
     106 ->109        -0.19177
     107 ->109        -0.20042

 Excited state symmetry could not be determined.
 Excited State   7:      Singlet-?Sym    4.4231 eV  280.31 nm  f=0.0000  <S**2>=0.000
     100 ->108         0.63126
     100 ->116        -0.14344
     102 ->109         0.18510
     102 ->123         0.11754

 Excited state symmetry could not be determined.
 Excited State   8:      Singlet-?Sym    4.4657 eV  277.63 nm  f=0.0000  <S**2>=0.000
     101 ->108        -0.26356
     103 ->109        -0.13895
     104 ->108         0.61766

 Excited state symmetry could not be determined.
 Excited State   9:      Singlet-?Sym    4.4715 eV  277.28 nm  f=0.4755  <S**2>=0.000
     103 ->108         0.67612
     104 ->109        -0.15855

 Excited state symmetry could not be determined.
 Excited State  10:      Singlet-?Sym    4.8365 eV  256.35 nm  f=0.0000  <S**2>=0.000
     107 ->110         0.40465
     107 ->112        -0.38843
     107 ->114        -0.31939
     107 ->118         0.12213
     107 ->121         0.17529

 Alpha  occ. eigenvalues --  -88.99900 -88.99900 -19.29277 -19.29277 -19.27961
 Alpha  occ. eigenvalues --  -19.27961 -19.19789 -19.19789 -14.45051 -14.45051
 Alpha  occ. eigenvalues --  -10.37280 -10.37280 -10.35331 -10.35331 -10.35152
 Alpha  occ. eigenvalues --  -10.35152 -10.34799 -10.34799 -10.34536 -10.34535
 Alpha  occ. eigenvalues --  -10.34419 -10.34418 -10.31710 -10.31710 -10.30457
 Alpha  occ. eigenvalues --  -10.30457 -10.26107 -10.26063  -8.05719  -8.05719
 Alpha  occ. eigenvalues --   -6.02283  -6.02282  -6.01886  -6.01886  -6.01456
 Alpha  occ. eigenvalues --   -6.01455  -1.19622  -1.19622  -1.15922  -1.15920
 Alpha  occ. eigenvalues --   -1.12256  -1.11641  -1.05296  -1.03990  -0.98281
 Alpha  occ. eigenvalues --   -0.98207  -0.88820  -0.88212  -0.87717  -0.86571
 Alpha  occ. eigenvalues --   -0.85858  -0.81230  -0.80800  -0.79899  -0.77880
 Alpha  occ. eigenvalues --   -0.74917  -0.74104  -0.73297  -0.69871  -0.67466
 Alpha  occ. eigenvalues --   -0.64438  -0.64298  -0.63892  -0.63514  -0.63043
 Alpha  occ. eigenvalues --   -0.61224  -0.60409  -0.59920  -0.58066  -0.57975
 Alpha  occ. eigenvalues --   -0.55048  -0.54245  -0.54243  -0.53577  -0.53536
 Alpha  occ. eigenvalues --   -0.53163  -0.52155  -0.51942  -0.51439  -0.50199
 Alpha  occ. eigenvalues --   -0.49888  -0.49722  -0.49406  -0.49294  -0.48724
 Alpha  occ. eigenvalues --   -0.48316  -0.47618  -0.47144  -0.45274  -0.43236
 Alpha  occ. eigenvalues --   -0.42664  -0.42468  -0.42320  -0.42234  -0.41546
 Alpha  occ. eigenvalues --   -0.39925  -0.39883  -0.38869  -0.38759  -0.33421
 Alpha  occ. eigenvalues --   -0.31876  -0.31760  -0.30792  -0.30084  -0.28959
 Alpha  occ. eigenvalues --   -0.28952  -0.22848
 Alpha virt. eigenvalues --   -0.06003  -0.00023   0.02152   0.02160   0.03642
 Alpha virt. eigenvalues --    0.03741   0.03797   0.04080   0.04209   0.04404
 Alpha virt. eigenvalues --    0.04442   0.05162   0.05189   0.06028   0.06254

 Mulliken atomic charges:
              1
     1  N   -0.487125
     2  C    0.788510
     3  C    0.765056
     4  C   -0.576764
     5  C   -0.576766
     6  C    0.765040
     7  C    0.788509
     8  N   -0.487125
     9  O   -0.545859
    10  O   -0.545859
    11  H    0.341270
    12  H    0.341271
    13  C    0.073577
    14  C    0.135036
    15  C   -0.036814
    16  H    0.158489
    17  C   -0.027688
    18  H    0.165081
    19  C   -0.441714
    20  C   -0.310789
    21  H    0.176797
    22  S    0.271465
    23  C    0.135043
    24  C    0.073583
    25  C   -0.027688
    26  H    0.165081
    27  C   -0.036811
    28  H    0.158488
    29  C   -0.310784
    30  H    0.176797
    31  C   -0.441718
    32  S    0.271462
    33  O   -0.383511
    34  O   -0.393208
    35  H    0.171049
    36  H    0.157143
    37  O   -0.393207
    38  O   -0.383509
    39  H    0.171048
    40  H    0.157142
 Sum of Mulliken atomic charges =   0.00000

 Dipole moment (field-independent basis, Debye):
    X=              0.0000    Y=             -0.0001    Z=             -0.0001  Tot=              0.0001
 Quadrupole moment (field-independent basis, Debye-Ang):
   XX=           -121.2119   YY=           -174.1926   ZZ=           -163.7041
   XY=            -10.5063   XZ=             45.0581   YZ=             -4.0009

 Normal termination of Gaussian 09 at Wed Sep 20 15:25:29 2023.
