 Gaussian 16, Revision C.01,
 Gaussian 16:  ES64L-G16RevC.01  3-Jul-2019

 ----------------------------------------------------------------
 # td=(nstates=10) cam-b3lyp/6-31+g(d,p) nosymm geom=connectivity
 ----------------------------------------------------------------

 -------
 Energy:
 -------
 Symbolic Z-matrix:
 Charge =  0 Multiplicity = 1

                          Input orientation:
 ---------------------------------------------------------------------
 Center     Atomic      Atomic             Coordinates (Angstroms)
 Number     Number       Type             X           Y           Z
 ---------------------------------------------------------------------
      1          7           0        1.214708   -1.733752    0.059538
      2          6           0       -0.208860   -1.808183   -0.019058
      3          6           0        1.686543   -0.429531   -0.019690
      4          6           0        0.597077    0.409569   -0.130964
      5          6           0       -0.597076   -0.409572   -0.130964
      6          6           0       -1.686542    0.429529   -0.019695
      7          6           0        0.208861    1.808180   -0.019058
      8          7           0       -1.214707    1.733749    0.059537
      9          8           0       -0.830830   -2.861488   -0.002236
     10          8           0        0.830831    2.861485   -0.002238
     11          1           0       -1.791051    2.558624   -0.036988
     12          1           0        1.791051   -2.558627   -0.036991
     13          6           0       -6.049342   -1.397373   -1.218045
     14          6           0       -5.129714   -0.610617   -0.515315
     15          6           0       -3.747587   -0.746646   -0.779090
     16          6           0       -3.263401   -1.636978   -1.736608
     17          6           0       -4.198929   -2.410015   -2.425911
     18          6           0       -5.576066   -2.297373   -2.171225
     19          1           0       -7.114243   -1.303944   -1.026578
     20          1           0       -2.205057   -1.750816   -1.927048
     21          1           0       -3.847837   -3.119885   -3.168462
     22          1           0       -6.275963   -2.917688   -2.722545
     23          7           0       -3.041143    0.177021    0.031432
     24          6           0       -3.982253    0.883729    0.818299
     25          6           0       -5.278774    0.416722    0.498772
     26          6           0       -3.771634    1.841136    1.814549
     27          6           0       -6.388416    0.947441    1.165766
     28          6           0       -4.894778    2.357905    2.464706
     29          1           0       -2.776858    2.164668    2.098217
     30          6           0       -6.190755    1.923822    2.141473
     31          1           0       -7.389258    0.596855    0.931892
     32          1           0       -4.756360    3.103872    3.241317
     33          1           0       -7.043486    2.344243    2.665408
     34          6           0        6.388423   -0.947448    1.165749
     35          6           0        5.278777   -0.416726    0.498763
     36          6           0        3.982257   -0.883731    0.818299
     37          6           0        3.771644   -1.841138    1.814551
     38          6           0        4.894792   -2.357910    2.464698
     39          6           0        6.190768   -1.923830    2.141455
     40          1           0        7.389264   -0.596863    0.931868
     41          1           0        2.776869   -2.164668    2.098227
     42          1           0        4.756378   -3.103877    3.241310
     43          1           0        7.043501   -2.344254    2.665383
     44          7           0        3.041143   -0.177019    0.031440
     45          6           0        3.747582    0.746650   -0.779082
     46          6           0        5.129711    0.610616   -0.515319
     47          6           0        3.263390    1.636990   -1.736590
     48          6           0        6.049335    1.397374   -1.218053
     49          6           0        4.198914    2.410028   -2.425897
     50          1           0        2.205044    1.750833   -1.927019
     51          6           0        5.576053    2.297381   -2.171223
     52          1           0        7.114238    1.303942   -1.026595
     53          1           0        3.847817    3.119903   -3.168440
     54          1           0        6.275946    2.917697   -2.722546
 ---------------------------------------------------------------------

 SCF Done:  E(RCAM-B3LYP) =  -1522.82019569     A.U. after   17 cycles

 Excitation energies and oscillator strengths:

 Excited state symmetry could not be determined.
 Excited State   1:      Singlet-?Sym    3.1463 eV  394.06 nm  f=0.6264  <S**2>=0.000
     121 ->122         0.69587
 This state for optimization and/or second-order correction.
 Total Energy, E(TD-HF/TD-DFT) =  -1522.70457066
 Copying the excited state density for this state as the 1-particle RhoCI density.

 Excited state symmetry could not be determined.
 Excited State   2:      Singlet-?Sym    4.1602 eV  298.03 nm  f=0.0002  <S**2>=0.000
     113 ->122        -0.11184
     118 ->122         0.61578
     120 ->122         0.13329
     121 ->124         0.12471
     121 ->125        -0.17721

 Excited state symmetry could not be determined.
 Excited State   3:      Singlet-?Sym    4.2967 eV  288.56 nm  f=0.0611  <S**2>=0.000
     117 ->122        -0.33429
     118 ->124         0.14149
     119 ->122         0.51349
     120 ->125        -0.13933
     121 ->123        -0.23077

 Excited state symmetry could not be determined.
 Excited State   4:      Singlet-?Sym    4.3070 eV  287.87 nm  f=0.0068  <S**2>=0.000
     118 ->122        -0.14494
     119 ->125        -0.14189
     120 ->122         0.64426

 Excited state symmetry could not be determined.
 Excited State   5:      Singlet-?Sym    4.3341 eV  286.06 nm  f=0.1635  <S**2>=0.000
     117 ->122         0.44783
     118 ->124        -0.13454
     119 ->122         0.43971
     121 ->123         0.20630

 Excited state symmetry could not be determined.
 Excited State   6:      Singlet-?Sym    4.3693 eV  283.76 nm  f=0.0000  <S**2>=0.000
     112 ->125        -0.10955
     114 ->122         0.56180
     115 ->122         0.17216
     118 ->123        -0.14001
     121 ->124         0.24082

 Excited state symmetry could not be determined.
 Excited State   7:      Singlet-?Sym    4.4189 eV  280.58 nm  f=0.0009  <S**2>=0.000
     113 ->122         0.13536
     114 ->122        -0.22401
     117 ->124        -0.12484
     118 ->122        -0.10458
     118 ->123        -0.27867
     120 ->122        -0.16214
     120 ->127        -0.10760
     121 ->124         0.47964

 Excited state symmetry could not be determined.
 Excited State   8:      Singlet-?Sym    4.4313 eV  279.79 nm  f=0.0061  <S**2>=0.000
     117 ->122        -0.37816
     117 ->123        -0.12957
     118 ->124        -0.25301
     121 ->123         0.46967

 Excited state symmetry could not be determined.
 Excited State   9:      Singlet-?Sym    4.5081 eV  275.02 nm  f=0.0001  <S**2>=0.000
     113 ->122         0.65284
     114 ->122         0.11235
     118 ->122         0.17423

 Excited state symmetry could not be determined.
 Excited State  10:      Singlet-?Sym    4.7309 eV  262.07 nm  f=0.0399  <S**2>=0.000
     110 ->122         0.31763
     112 ->122         0.43250
     114 ->125        -0.16969
     116 ->122         0.25521
     119 ->123        -0.13343
     120 ->124         0.13146

 Alpha  occ. eigenvalues --  -19.21705 -19.21705 -14.49437 -14.49437 -14.47506
 Alpha  occ. eigenvalues --  -14.47506 -10.39458 -10.39458 -10.39143 -10.39142
 Alpha  occ. eigenvalues --  -10.32763 -10.32763 -10.32156 -10.32156 -10.28824
 Alpha  occ. eigenvalues --  -10.28824 -10.28806 -10.28806 -10.28548 -10.28548
 Alpha  occ. eigenvalues --  -10.28466 -10.28466 -10.28386 -10.28386 -10.28335
 Alpha  occ. eigenvalues --  -10.28296 -10.27998 -10.27998 -10.27939 -10.27939
 Alpha  occ. eigenvalues --  -10.27750 -10.27750 -10.27627 -10.27627 -10.27304
 Alpha  occ. eigenvalues --  -10.27304  -1.14835  -1.14000  -1.11315  -1.11141
 Alpha  occ. eigenvalues --   -1.06112  -1.04884  -0.95667  -0.95607  -0.94777
 Alpha  occ. eigenvalues --   -0.94743  -0.90878  -0.88806  -0.88506  -0.85547
 Alpha  occ. eigenvalues --   -0.84984  -0.84679  -0.84244  -0.81525  -0.81494
 Alpha  occ. eigenvalues --   -0.80446  -0.77593  -0.77031  -0.73753  -0.72627
 Alpha  occ. eigenvalues --   -0.70823  -0.70208  -0.69862  -0.68682  -0.67157
 Alpha  occ. eigenvalues --   -0.66861  -0.66011  -0.63707  -0.63178  -0.63061
 Alpha  occ. eigenvalues --   -0.60621  -0.60178  -0.59401  -0.59192  -0.57833
 Alpha  occ. eigenvalues --   -0.55995  -0.55226  -0.55208  -0.54710  -0.53948
 Alpha  occ. eigenvalues --   -0.53758  -0.53402  -0.53385  -0.52276  -0.52165
 Alpha  occ. eigenvalues --   -0.51467  -0.51373  -0.51105  -0.51030  -0.50768
 Alpha  occ. eigenvalues --   -0.50765  -0.50073  -0.49862  -0.49627  -0.47547
 Alpha  occ. eigenvalues --   -0.45040  -0.44674  -0.44501  -0.44378  -0.44244
 Alpha  occ. eigenvalues --   -0.44047  -0.44001  -0.43221  -0.42124  -0.41961
 Alpha  occ. eigenvalues --   -0.41608  -0.41590  -0.39749  -0.39525  -0.35759
 Alpha  occ. eigenvalues --   -0.35659  -0.35397  -0.34263  -0.33780  -0.32601
 Alpha  occ. eigenvalues --   -0.32599  -0.29532  -0.28530  -0.28227  -0.28221
 Alpha  occ. eigenvalues --   -0.25007
 Alpha virt. eigenvalues --   -0.05244  -0.01015  -0.01014   0.01444   0.02190
 Alpha virt. eigenvalues --    0.02560   0.02753   0.02870   0.03482   0.03487
 Alpha virt. eigenvalues --    0.03642   0.04187   0.04552   0.04890   0.05054

 Mulliken charges:
               1
     1  N   -0.549868
     2  C    0.116638
     3  C    0.254787
     4  C    0.292346
     5  C    0.292320
     6  C    0.254764
     7  C    0.116621
     8  N   -0.549869
     9  O   -0.515552
    10  O   -0.515552
    11  H    0.337588
    12  H    0.337588
    13  C    0.016908
    14  C    0.301377
    15  C    0.015104
    16  C    0.257798
    17  C   -0.479217
    18  C   -0.319220
    19  H    0.135612
    20  H    0.135506
    21  H    0.137867
    22  H    0.134932
    23  N    0.149584
    24  C   -0.098707
    25  C   -0.033185
    26  C    0.032559
    27  C   -0.260061
    28  C   -0.425392
    29  H    0.156414
    30  C   -0.209749
    31  H    0.139459
    32  H    0.139558
    33  H    0.136956
    34  C   -0.260056
    35  C   -0.033201
    36  C   -0.098730
    37  C    0.032554
    38  C   -0.425385
    39  C   -0.209747
    40  H    0.139459
    41  H    0.156414
    42  H    0.139558
    43  H    0.136956
    44  N    0.149578
    45  C    0.015120
    46  C    0.301395
    47  C    0.257785
    48  C    0.016917
    49  C   -0.479225
    50  H    0.135506
    51  C   -0.319222
    52  H    0.135612
    53  H    0.137867
    54  H    0.134932
 Sum of Mulliken charges =  -0.00000

 Dipole moment (field-independent basis, Debye):
    X=             -0.0000    Y=             -0.0000    Z=             -0.1319  Tot=              0.1319
 Quadrupole moment (field-independent basis, Debye-Ang):
   XX=           -169.8072   YY=           -216.1049   ZZ=           -200.3851
   XY=            -13.3023   XZ=             -0.0000   YZ=              0.0000

 Normal termination of Gaussian 16 at Mon Nov 13 14:22:53 2023.
