 Gaussian 09, Revision A.02,
 Gaussian 09:  EM64L-G09RevA.02 11-Jun-2009

 -----------------------------------------------------------
 # opt=tight freq b3lyp/6-31+g(d,p) nosymm geom=connectivity
 -----------------------------------------------------------

 -------
 Energy:
 -------
 Symbolic Z-matrix:
 Charge = -1 Multiplicity = 2

 SCF Done:  E(UB3LYP) =  -1902.02294674     A.U. after   38 cycles
 SCF Done:  E(UB3LYP) =  -1902.02550273     A.U. after   28 cycles
 SCF Done:  E(UB3LYP) =  -1902.02586652     A.U. after   31 cycles
 SCF Done:  E(UB3LYP) =  -1902.02595546     A.U. after   33 cycles
 SCF Done:  E(UB3LYP) =  -1902.02600192     A.U. after   18 cycles
 SCF Done:  E(UB3LYP) =  -1902.02600449     A.U. after   21 cycles
 SCF Done:  E(UB3LYP) =  -1902.02601361     A.U. after   27 cycles
 SCF Done:  E(UB3LYP) =  -1902.02601467     A.U. after   25 cycles
 SCF Done:  E(UB3LYP) =  -1902.02601525     A.U. after   15 cycles
 SCF Done:  E(UB3LYP) =  -1902.02601533     A.U. after   20 cycles
 SCF Done:  E(UB3LYP) =  -1902.02601534     A.U. after   12 cycles
 SCF Done:  E(UB3LYP) =  -1902.02601535     A.U. after   15 cycles
 SCF Done:  E(UB3LYP) =  -1902.02601535     A.U. after    9 cycles
 SCF Done:  E(UB3LYP) =  -1902.02601535     A.U. after   14 cycles
 SCF Done:  E(UB3LYP) =  -1902.02601535     A.U. after   14 cycles
 SCF Done:  E(UB3LYP) =  -1902.02601535     A.U. after   12 cycles
 Optimization completed.
    -- Stationary point found.

 Alpha  occ. eigenvalues --  -88.81572 -88.81567 -19.01007 -19.01002 -14.26842
 Alpha  occ. eigenvalues --  -14.26839 -10.17931 -10.17929 -10.14088 -10.14087
 Alpha  occ. eigenvalues --  -10.13135 -10.13130 -10.11473 -10.11471 -10.11262
 Alpha  occ. eigenvalues --  -10.11260 -10.11096 -10.11094 -10.10962 -10.10959
 Alpha  occ. eigenvalues --  -10.10898 -10.10896 -10.10847 -10.10844 -10.10538
 Alpha  occ. eigenvalues --  -10.10536 -10.07795 -10.07748  -7.87377  -7.87372
 Alpha  occ. eigenvalues --   -5.83797  -5.83792  -5.83405  -5.83400  -5.83175
 Alpha  occ. eigenvalues --   -5.83170  -0.92473  -0.91916  -0.85408  -0.84227
 Alpha  occ. eigenvalues --   -0.79395  -0.79328  -0.73852  -0.73843  -0.69166
 Alpha  occ. eigenvalues --   -0.68398  -0.68202  -0.65184  -0.64339  -0.63934
 Alpha  occ. eigenvalues --   -0.63383  -0.58548  -0.56260  -0.56091  -0.52842
 Alpha  occ. eigenvalues --   -0.52824  -0.49912  -0.49021  -0.48839  -0.47515
 Alpha  occ. eigenvalues --   -0.44729  -0.43421  -0.42641  -0.42627  -0.39354
 Alpha  occ. eigenvalues --   -0.39115  -0.37469  -0.37466  -0.36514  -0.35359
 Alpha  occ. eigenvalues --   -0.34755  -0.34444  -0.34047  -0.33579  -0.33196
 Alpha  occ. eigenvalues --   -0.32160  -0.31746  -0.31234  -0.30888  -0.30572
 Alpha  occ. eigenvalues --   -0.30482  -0.29782  -0.28419  -0.27398  -0.26927
 Alpha  occ. eigenvalues --   -0.25600  -0.25256  -0.25240  -0.24438  -0.24407
 Alpha  occ. eigenvalues --   -0.24227  -0.22941  -0.22400  -0.19053  -0.18857
 Alpha  occ. eigenvalues --   -0.16082  -0.15938  -0.15482  -0.15066  -0.14255
 Alpha  occ. eigenvalues --   -0.13156  -0.12336  -0.07571  -0.03191
 Alpha virt. eigenvalues --    0.02177   0.05164   0.07686   0.07732   0.08411
 Alpha virt. eigenvalues --    0.08808   0.08948   0.09647   0.09778   0.09896
 Alpha virt. eigenvalues --    0.09915   0.10740   0.10986   0.11704   0.12046

  Beta  occ. eigenvalues --  -88.81512 -88.81507 -19.00910 -19.00905 -14.26845
  Beta  occ. eigenvalues --  -14.26842 -10.17904 -10.17901 -10.13829 -10.13829
  Beta  occ. eigenvalues --  -10.13245 -10.13240 -10.11211 -10.11209 -10.11141
  Beta  occ. eigenvalues --  -10.11138 -10.11122 -10.11119 -10.11014 -10.11012
  Beta  occ. eigenvalues --  -10.10912 -10.10909 -10.10797 -10.10793 -10.10402
  Beta  occ. eigenvalues --  -10.10400 -10.07857 -10.07810  -7.87319  -7.87313
  Beta  occ. eigenvalues --   -5.83763  -5.83758  -5.83375  -5.83369  -5.82977
  Beta  occ. eigenvalues --   -5.82971  -0.92327  -0.91760  -0.85246  -0.84059
  Beta  occ. eigenvalues --   -0.79241  -0.79174  -0.73706  -0.73697  -0.69191
  Beta  occ. eigenvalues --   -0.68177  -0.67997  -0.65007  -0.64209  -0.63677
  Beta  occ. eigenvalues --   -0.63073  -0.58339  -0.56020  -0.55842  -0.52691
  Beta  occ. eigenvalues --   -0.52659  -0.49747  -0.48873  -0.48705  -0.47354
  Beta  occ. eigenvalues --   -0.44660  -0.43293  -0.42607  -0.42483  -0.39276
  Beta  occ. eigenvalues --   -0.39033  -0.37382  -0.37377  -0.36453  -0.35258
  Beta  occ. eigenvalues --   -0.34453  -0.34373  -0.33968  -0.33472  -0.33085
  Beta  occ. eigenvalues --   -0.32025  -0.31647  -0.30862  -0.30730  -0.30443
  Beta  occ. eigenvalues --   -0.30135  -0.29443  -0.28362  -0.27310  -0.26835
  Beta  occ. eigenvalues --   -0.25390  -0.25128  -0.24931  -0.24226  -0.24067
  Beta  occ. eigenvalues --   -0.24016  -0.22055  -0.21587  -0.18655  -0.18475
  Beta  occ. eigenvalues --   -0.15809  -0.15539  -0.15045  -0.14992  -0.14152
  Beta  occ. eigenvalues --   -0.12511  -0.11620  -0.06361
  Beta virt. eigenvalues --    0.01104   0.03262   0.05764   0.07690   0.07737
  Beta virt. eigenvalues --    0.08830   0.08837   0.08973   0.09666   0.09851
  Beta virt. eigenvalues --    0.10307   0.10373   0.10779   0.11023   0.11784

 Mulliken atomic charges:
              1
     1  N   -0.390352
     2  C    0.469751
     3  C    0.630032
     4  C   -0.405480
     5  C   -0.398888
     6  C    0.635328
     7  C    0.469445
     8  N   -0.389807
     9  O   -0.589670
    10  O   -0.589616
    11  H    0.283773
    12  H    0.283873
    13  C   -0.091075
    14  C   -0.332955
    15  C   -0.307938
    16  C   -0.258071
    17  H    0.106508
    18  C   -0.090991
    19  H    0.102478
    20  C    0.309149
    21  H    0.105238
    22  C   -0.578902
    23  C    0.112303
    24  H    0.133872
    25  S    0.174782
    26  C   -0.329758
    27  C   -0.095058
    28  C    0.306744
    29  H    0.105245
    30  C   -0.090134
    31  H    0.102463
    32  C   -0.255386
    33  H    0.106512
    34  C   -0.306059
    35  C    0.112317
    36  H    0.133819
    37  C   -0.576217
    38  S    0.173897
    39  H    0.109455
    40  H    0.109372
 Sum of Mulliken atomic charges =  -1.00000

 Dipole moment (field-independent basis, Debye):
    X=            -10.0759    Y=             -4.2538    Z=             -6.8601  Tot=             12.9104
 Quadrupole moment (field-independent basis, Debye-Ang):
   XX=           -222.1042   YY=           -202.4040   ZZ=           -235.2263
   XY=            -15.9536   XZ=             -0.0568   YZ=            -12.3296

 Normal termination of Gaussian 09 at Fri Sep 15 15:09:47 2023.

 ----------------------------------------------------------------------
 #N Geom=AllCheck Guess=TCheck SCRF=Check GenChk UB3LYP/6-31+G(d,p) Fre
 q
 ----------------------------------------------------------------------

 Energy:
 -------
 Redundant internal coordinates taken from checkpoint file:
 /home/nathalia.rosa/DPP-SUB/DPP-SUB-4b/DPP-SUB-4B-ANION.chk
 Charge = -1 Multiplicity = 2

                          Input orientation:
 ---------------------------------------------------------------------
 Center     Atomic      Atomic             Coordinates (Angstroms)
 Number     Number       Type             X           Y           Z
 ---------------------------------------------------------------------
      1          7           0        1.486243   -0.518940   -0.041965
      2          6           0        0.838706   -0.402706    1.208671
      3          6           0        2.443417    0.486708   -0.277228
      4          6           0        2.450983    1.257512    0.902831
      5          6           0        1.500167    0.732409    1.823198
      6          6           0        1.574225    1.443886    3.037852
      7          6           0        3.147515    2.361217    1.535527
      8          7           0        2.596623    2.390945    2.836464
      9          8           0       -0.082179   -1.148512    1.567997
     10          8           0        4.005937    3.162981    1.143620
     11          1           0        2.730153    3.207404    3.412779
     12          1           0        1.066385   -1.078806   -0.767810
     13          6           0        4.061864    0.175190   -3.671402
     14          6           0        3.310724   -0.361480   -2.550414
     15          6           0        2.881033   -1.714003   -2.612855
     16          6           0        3.125681   -2.480851   -3.739039
     17          1           0        2.797246   -3.516148   -3.765118
     18          6           0        3.819460   -1.934481   -4.854455
     19          1           0        3.994318   -2.553717   -5.731025
     20          6           0        4.287248   -0.640235   -4.823658
     21          1           0        4.837541   -0.228216   -5.666098
     22          6           0        3.171646    0.583222   -1.485788
     23          6           0        4.504488    1.473591   -3.448004
     24          1           0        5.113621    2.085415   -4.099413
     25         16           0        4.026468    2.069178   -1.896523
     26          6           0        1.134042    1.912528    5.532837
     27          6           0        0.080356    1.648310    6.496466
     28          6           0        0.196792    2.160337    7.825975
     29          1           0       -0.601805    1.971554    8.539341
     30          6           0        1.314768    2.873967    8.194497
     31          1           0        1.402038    3.260546    9.207090
     32          6           0        2.372091    3.093405    7.268314
     33          1           0        3.264113    3.625272    7.587350
     34          6           0        2.285521    2.620005    5.970364
     35          6           0       -0.944262    0.869940    5.970964
     36          1           0       -1.821946    0.499331    6.482856
     37          6           0        0.858242    1.337365    4.252726
     38         16           0       -0.661622    0.446714    4.318151
     39          1           0        2.396548   -2.176737   -1.760686
     40          1           0        3.131000    2.757974    5.306156
 ---------------------------------------------------------------------

 SCF Done:  E(UB3LYP) =  -1902.02601535     A.U. after    7 cycles
