 Gaussian 09, Revision A.02,
 Gaussian 09:  EM64L-G09RevA.02 11-Jun-2009

 -----------------------------------------------------------
 # opt=tight freq b3lyp/6-31+g(d,p) nosymm geom=connectivity
 -----------------------------------------------------------

 -------
 Energy:
 -------
 Symbolic Z-matrix:
 Charge =  1 Multiplicity = 2

 SCF Done:  E(UB3LYP) =  -1901.72304736     A.U. after   32 cycles
 SCF Done:  E(UB3LYP) =  -1901.72755688     A.U. after   29 cycles
 SCF Done:  E(UB3LYP) =  -1901.72851044     A.U. after   26 cycles
 SCF Done:  E(UB3LYP) =  -1901.72859586     A.U. after   26 cycles
 SCF Done:  E(UB3LYP) =  -1901.72863566     A.U. after   17 cycles
 SCF Done:  E(UB3LYP) =  -1901.72864887     A.U. after   18 cycles
 SCF Done:  E(UB3LYP) =  -1901.72865476     A.U. after   28 cycles
 SCF Done:  E(UB3LYP) =  -1901.72865824     A.U. after   14 cycles
 SCF Done:  E(UB3LYP) =  -1901.72865955     A.U. after   17 cycles
 SCF Done:  E(UB3LYP) =  -1901.72865999     A.U. after   11 cycles
 SCF Done:  E(UB3LYP) =  -1901.72866011     A.U. after   19 cycles
 SCF Done:  E(UB3LYP) =  -1901.72866016     A.U. after   16 cycles
 SCF Done:  E(UB3LYP) =  -1901.72866017     A.U. after    9 cycles
 SCF Done:  E(UB3LYP) =  -1901.72866017     A.U. after   12 cycles
 SCF Done:  E(UB3LYP) =  -1901.72866017     A.U. after    7 cycles
 Optimization completed.
    -- Stationary point found.
 Normal termination of Gaussian 09 at Thu Sep 14 03:46:22 2023.

 ----------------------------------------------------------------------
 #N Geom=AllCheck Guess=TCheck SCRF=Check GenChk UB3LYP/6-31+G(d,p) Fre
 q
 ----------------------------------------------------------------------

 Energy:
 -------
 Redundant internal coordinates taken from checkpoint file:
 /home/nathalia.rosa/DPP-SUB/DPP-SUB-4b/DPP-SUB-4B-CATION.chk
 Charge =  1 Multiplicity = 2

                          Input orientation:
 ---------------------------------------------------------------------
 Center     Atomic      Atomic             Coordinates (Angstroms)
 Number     Number       Type             X           Y           Z
 ---------------------------------------------------------------------
      1          7           0        1.472186   -0.565738   -0.011149
      2          6           0        0.850680   -0.425050    1.260431
      3          6           0        2.422638    0.409103   -0.265423
      4          6           0        2.451587    1.219992    0.908925
      5          6           0        1.535036    0.734690    1.837091
      6          6           0        1.645890    1.472651    3.053830
      7          6           0        3.186160    2.334911    1.511565
      8          7           0        2.647760    2.401499    2.826257
      9          8           0       -0.042606   -1.143152    1.671893
     10          8           0        4.043013    3.085577    1.081115
     11          1           0        2.853261    3.192690    3.418872
     12          1           0        1.081041   -1.191429   -0.700285
     13          6           0        4.069509    0.136495   -3.620823
     14          6           0        3.275946   -0.410219   -2.550443
     15          6           0        2.775878   -1.726311   -2.693747
     16          6           0        3.020931   -2.427630   -3.863493
     17          1           0        2.638851   -3.438904   -3.961759
     18          6           0        3.769378   -1.866941   -4.928338
     19          1           0        3.935242   -2.448540   -5.828915
     20          6           0        4.301901   -0.601181   -4.811581
     21          1           0        4.898812   -0.167733   -5.607671
     22          6           0        3.168864    0.504765   -1.451556
     23          6           0        4.561641    1.411048   -3.314621
     24          1           0        5.185174    2.032739   -3.945807
     25         16           0        4.106642    1.963569   -1.779340
     26          6           0        1.176996    1.953457    5.537187
     27          6           0        0.137634    1.631136    6.480627
     28          6           0        0.168959    2.138031    7.806662
     29          1           0       -0.627310    1.886631    8.499980
     30          6           0        1.224239    2.936137    8.192410
     31          1           0        1.268603    3.333157    9.200981
     32          6           0        2.271484    3.224603    7.282199
     33          1           0        3.110504    3.826941    7.616158
     34          6           0        2.261552    2.746564    5.981631
     35          6           0       -0.828070    0.779381    5.930593
     36          1           0       -1.705278    0.386923    6.430775
     37          6           0        0.941934    1.341056    4.262112
     38         16           0       -0.517335    0.350458    4.321422
     39          1           0        2.242162   -2.225324   -1.894504
     40          1           0        3.113896    2.956021    5.347285
 ---------------------------------------------------------------------

 SCF Done:  E(UB3LYP) =  -1901.72866017     A.U. after    5 cycles

 Alpha  occ. eigenvalues --  -89.06094 -89.06092 -19.26601 -19.26600 -14.51527
 Alpha  occ. eigenvalues --  -14.51523 -10.43222 -10.43220 -10.40749 -10.40746
 Alpha  occ. eigenvalues --  -10.37278 -10.37273 -10.36990 -10.36987 -10.34878
 Alpha  occ. eigenvalues --  -10.34875 -10.34033 -10.33975 -10.33875 -10.33872
 Alpha  occ. eigenvalues --  -10.32866 -10.32863 -10.32651 -10.32650 -10.32585
 Alpha  occ. eigenvalues --  -10.32585 -10.31783 -10.31783  -8.11865  -8.11862
 Alpha  occ. eigenvalues --   -6.08271  -6.08268  -6.07864  -6.07862  -6.07646
 Alpha  occ. eigenvalues --   -6.07644  -1.18353  -1.17846  -1.11216  -1.09756
 Alpha  occ. eigenvalues --   -1.03379  -1.03324  -0.96657  -0.96630  -0.94807
 Alpha  occ. eigenvalues --   -0.92256  -0.91685  -0.88347  -0.87281  -0.87091
 Alpha  occ. eigenvalues --   -0.86733  -0.82212  -0.80932  -0.80022  -0.75266
 Alpha  occ. eigenvalues --   -0.75110  -0.74029  -0.72157  -0.71716  -0.71034
 Alpha  occ. eigenvalues --   -0.69073  -0.67683  -0.66242  -0.65520  -0.62244
 Alpha  occ. eigenvalues --   -0.61804  -0.61727  -0.60059  -0.59192  -0.59161
 Alpha  occ. eigenvalues --   -0.58440  -0.58135  -0.57183  -0.56385  -0.56050
 Alpha  occ. eigenvalues --   -0.55517  -0.55408  -0.55251  -0.55002  -0.54434
 Alpha  occ. eigenvalues --   -0.54008  -0.53901  -0.52784  -0.49360  -0.48876
 Alpha  occ. eigenvalues --   -0.48856  -0.48502  -0.48442  -0.47924  -0.47288
 Alpha  occ. eigenvalues --   -0.47133  -0.46298  -0.46138  -0.41960  -0.41546
 Alpha  occ. eigenvalues --   -0.40696  -0.40629  -0.39218  -0.38030  -0.37994
 Alpha  occ. eigenvalues --   -0.36488  -0.35237  -0.30826
 Alpha virt. eigenvalues --   -0.23618  -0.20232  -0.17100  -0.13969  -0.11391
 Alpha virt. eigenvalues --   -0.11288  -0.10907  -0.10905  -0.10446  -0.10032
 Alpha virt. eigenvalues --   -0.09580  -0.08969  -0.08138  -0.08089  -0.07725

  Beta  occ. eigenvalues --  -89.06104 -89.06101 -19.26377 -19.26376 -14.51557
  Beta  occ. eigenvalues --  -14.51553 -10.43227 -10.43225 -10.40681 -10.40677
  Beta  occ. eigenvalues --  -10.37228 -10.37224 -10.36739 -10.36736 -10.34839
  Beta  occ. eigenvalues --  -10.34836 -10.33920 -10.33918 -10.33835 -10.33776
  Beta  occ. eigenvalues --  -10.32860 -10.32857 -10.32577 -10.32576 -10.32530
  Beta  occ. eigenvalues --  -10.32529 -10.31800 -10.31799  -8.11874  -8.11872
  Beta  occ. eigenvalues --   -6.08282  -6.08279  -6.07876  -6.07873  -6.07665
  Beta  occ. eigenvalues --   -6.07663  -1.18045  -1.17524  -1.10981  -1.09644
  Beta  occ. eigenvalues --   -1.03198  -1.03144  -0.96552  -0.96529  -0.94487
  Beta  occ. eigenvalues --   -0.91984  -0.91472  -0.88141  -0.87236  -0.87023
  Beta  occ. eigenvalues --   -0.86608  -0.81743  -0.80810  -0.79695  -0.75146
  Beta  occ. eigenvalues --   -0.75039  -0.73790  -0.72066  -0.71630  -0.70851
  Beta  occ. eigenvalues --   -0.68924  -0.67606  -0.66135  -0.65444  -0.62124
  Beta  occ. eigenvalues --   -0.61698  -0.61579  -0.59432  -0.59144  -0.59079
  Beta  occ. eigenvalues --   -0.58303  -0.57973  -0.57003  -0.56273  -0.55981
  Beta  occ. eigenvalues --   -0.55313  -0.55245  -0.55110  -0.54895  -0.54307
  Beta  occ. eigenvalues --   -0.53507  -0.53456  -0.52597  -0.48932  -0.48778
  Beta  occ. eigenvalues --   -0.48573  -0.48359  -0.48310  -0.47315  -0.47256
  Beta  occ. eigenvalues --   -0.47071  -0.45765  -0.45647  -0.41060  -0.40917
  Beta  occ. eigenvalues --   -0.40398  -0.40023  -0.38973  -0.37958  -0.37910
  Beta  occ. eigenvalues --   -0.35506  -0.34271
  Beta virt. eigenvalues --   -0.26534  -0.22262  -0.19236  -0.16464  -0.13506
  Beta virt. eigenvalues --   -0.10989  -0.10926  -0.10783  -0.10753  -0.10063
  Beta virt. eigenvalues --   -0.09949  -0.09483  -0.08601  -0.08110  -0.08066

 Mulliken atomic charges:
              1
     1  N   -0.336821
     2  C    0.430571
     3  C    0.578269
     4  C   -0.230892
     5  C   -0.242551
     6  C    0.567476
     7  C    0.431523
     8  N   -0.336704
     9  O   -0.465997
    10  O   -0.465808
    11  H    0.306638
    12  H    0.306502
    13  C    0.025091
    14  C   -0.357995
    15  C   -0.266987
    16  C   -0.248719
    17  H    0.160419
    18  C   -0.065466
    19  H    0.161628
    20  C    0.411336
    21  H    0.160208
    22  C   -0.644699
    23  C    0.321627
    24  H    0.200052
    25  S    0.251514
    26  C   -0.368649
    27  C    0.038836
    28  C    0.407789
    29  H    0.160236
    30  C   -0.062167
    31  H    0.161601
    32  C   -0.243192
    33  H    0.160428
    34  C   -0.271215
    35  C    0.321032
    36  H    0.200070
    37  C   -0.646663
    38  S    0.251453
    39  H    0.119917
    40  H    0.120305
 Sum of Mulliken atomic charges =   1.00000

 Dipole moment (field-independent basis, Debye):
    X=             10.2706    Y=              4.0935    Z=              6.9495  Tot=             13.0590
 Quadrupole moment (field-independent basis, Debye-Ang):
   XX=           -130.6117   YY=           -150.1974   ZZ=            -15.5593
   XY=              7.1461   XZ=            -28.6752   YZ=             43.7401

  Exact polarizability: 308.650  35.760 301.321-242.381 190.840 942.318
 Approx polarizability: 593.004 145.758 556.591-399.213 239.5341430.249

                     1                      2                      3
                     A                      A                      A
 Frequencies --    18.1159                33.8161                42.0394
 Red. masses --     6.9678                 6.2638                 8.0238
 Frc consts  --     0.0013                 0.0042                 0.0084
 IR Inten    --     0.9907                 1.3561                 0.6619

                     4                      5                      6
                     A                      A                      A
 Frequencies --    49.8592                72.1926                86.2572
 Red. masses --     6.1999                 5.9314                 6.2950
 Frc consts  --     0.0091                 0.0182                 0.0276
 IR Inten    --     0.6376                 0.0867                 0.3575

                     7                      8                      9
                     A                      A                      A
 Frequencies --   118.9244               140.1523               150.4182
 Red. masses --     9.4098                 8.9672                 7.7234
 Frc consts  --     0.0784                 0.1038                 0.1030
 IR Inten    --     2.2985                 0.1706                 1.3503

                    10                     11                     12
                     A                      A                      A
 Frequencies --   157.1076               175.5406               176.2747
 Red. masses --     8.3420                 6.4552                 7.5477
 Frc consts  --     0.1213                 0.1172                 0.1382
 IR Inten    --     0.0589                 1.5814                 4.2185

                    13                     14                     15
                     A                      A                      A
 Frequencies --   196.5004               234.5473               244.2459
 Red. masses --     7.0983                 7.1460                11.1321
 Frc consts  --     0.1615                 0.2316                 0.3913
 IR Inten    --     2.0810                 2.5060                 0.3292

                    16                     17                     18
                     A                      A                      A
 Frequencies --   268.4906               280.8910               308.8304
 Red. masses --     5.4105                 4.7668                 9.6171
 Frc consts  --     0.2298                 0.2216                 0.5404
 IR Inten    --     0.1896                 1.4488                 0.4041

                    19                     20                     21
                     A                      A                      A
 Frequencies --   334.3162               377.0020               393.9359
 Red. masses --     8.2717                 6.5166                 5.1125
 Frc consts  --     0.5447                 0.5457                 0.4675
 IR Inten    --     2.2322                11.2452                 1.4123

                    22                     23                     24
                     A                      A                      A
 Frequencies --   411.5231               424.4100               436.8235
 Red. masses --     4.0155                 4.4923                 5.1371
 Frc consts  --     0.4007                 0.4767                 0.5775
 IR Inten    --     2.0523                21.5131                16.0015

                    25                     26                     27
                     A                      A                      A
 Frequencies --   455.7923               472.7672               475.2484
 Red. masses --     8.3786                10.4538                 9.0403
 Frc consts  --     1.0256                 1.3766                 1.2030
 IR Inten    --     0.8100                17.3535                 1.0334

                    28                     29                     30
                     A                      A                      A
 Frequencies --   491.3881               509.0929               514.4828
 Red. masses --     2.0780                 3.1931                 1.7345
 Frc consts  --     0.2956                 0.4876                 0.2705
 IR Inten    --    94.8447                 1.0295                42.4424

                    31                     32                     33
                     A                      A                      A
 Frequencies --   521.9645               547.7456               559.1162
 Red. masses --     1.2601                 3.4286                 3.9912
 Frc consts  --     0.2023                 0.6061                 0.7351
 IR Inten    --     4.4092                 1.8717                 0.7478

                    34                     35                     36
                     A                      A                      A
 Frequencies --   587.6883               595.0001               619.0651
 Red. masses --     7.3272                 6.8190                 6.8186
 Frc consts  --     1.4910                 1.4223                 1.5396
 IR Inten    --     0.4780                38.1646                 0.2179

                    37                     38                     39
                     A                      A                      A
 Frequencies --   651.0958               653.0314               665.9888
 Red. masses --     7.1048                 8.0391                 5.9758
 Frc consts  --     1.7746                 2.0199                 1.5616
 IR Inten    --    20.7519                 1.5124                11.7187

                    40                     41                     42
                     A                      A                      A
 Frequencies --   678.6443               685.3179               707.4593
 Red. masses --     7.7459                 7.3074                 5.1227
 Frc consts  --     2.1019                 2.0221                 1.5106
 IR Inten    --     0.3473                 2.6984                13.1008

                    43                     44                     45
                     A                      A                      A
 Frequencies --   730.3138               750.1147               751.8857
 Red. masses --    11.0640                 1.8473                 1.6612
 Frc consts  --     3.4768                 0.6124                 0.5533
 IR Inten    --    22.6565                 2.0475                 4.2544

                    46                     47                     48
                     A                      A                      A
 Frequencies --   762.7151               763.8756               772.8699
 Red. masses --     1.9955                 2.2153                10.1104
 Frc consts  --     0.6840                 0.7616                 3.5582
 IR Inten    --     4.8862                53.3389                 4.3371

                    49                     50                     51
                     A                      A                      A
 Frequencies --   778.9797               810.9435               811.0546
 Red. masses --     8.3448                 1.4021                 1.3977
 Frc consts  --     2.9835                 0.5433                 0.5417
 IR Inten    --    14.5359                25.7541                83.3211

                    52                     53                     54
                     A                      A                      A
 Frequencies --   830.4955               864.5063               874.0162
 Red. masses --     6.8255                 5.9375                 2.4069
 Frc consts  --     2.7737                 2.6145                 1.0833
 IR Inten    --     0.6710                53.1915                 3.9178

                    55                     56                     57
                     A                      A                      A
 Frequencies --   875.2990               877.0234               909.5895
 Red. masses --     1.4688                 2.3726                 3.5847
 Frc consts  --     0.6630                 1.0752                 1.7474
 IR Inten    --     0.1385                 2.6005                58.3697

                    58                     59                     60
                     A                      A                      A
 Frequencies --   915.5811               937.2495               943.1520
 Red. masses --     3.6276                 8.1613                 8.0268
 Frc consts  --     1.7917                 4.2239                 4.2068
 IR Inten    --     2.0122                 0.1706                52.9042

                    61                     62                     63
                     A                      A                      A
 Frequencies --   975.1863               976.9542               977.4154
 Red. masses --     3.2164                 1.3630                 1.6290
 Frc consts  --     1.8021                 0.7665                 0.9169
 IR Inten    --    24.5023                 0.9624                 5.5585

                    64                     65                     66
                     A                      A                      A
 Frequencies --  1012.7420              1013.0498              1027.7112
 Red. masses --     1.3425                 1.3418                 3.4050
 Frc consts  --     0.8113                 0.8113                 2.1189
 IR Inten    --     0.0642                 0.0530                 0.0639

                    67                     68                     69
                     A                      A                      A
 Frequencies --  1047.9640              1050.2328              1088.9572
 Red. masses --     2.2936                 2.4478                 6.4106
 Frc consts  --     1.4841                 1.5907                 4.4789
 IR Inten    --     0.1149                 0.0654                71.5419

                    70                     71                     72
                     A                      A                      A
 Frequencies --  1137.9176              1151.4946              1168.5014
 Red. masses --     3.6677                 2.0012                 1.9696
 Frc consts  --     2.7981                 1.5634                 1.5845
 IR Inten    --    13.4785                 0.0367                19.1214

                    73                     74                     75
                     A                      A                      A
 Frequencies --  1191.9279              1196.6710              1211.5941
 Red. masses --     1.2409                 1.3383                 1.3222
 Frc consts  --     1.0387                 1.1292                 1.1436
 IR Inten    --     0.4125                67.7075                 3.9638

                    76                     77                     78
                     A                      A                      A
 Frequencies --  1212.4576              1231.1727              1244.6671
 Red. masses --     1.2969                 1.9767                 1.9637
 Frc consts  --     1.1233                 1.7653                 1.7924
 IR Inten    --    18.3215                 0.0602                97.4861

                    79                     80                     81
                     A                      A                      A
 Frequencies --  1281.7119              1325.9525              1328.2259
 Red. masses --     3.5262                 2.2736                 2.2890
 Frc consts  --     3.4130                 2.3551                 2.3793
 IR Inten    --     0.0918                38.8336                 3.3039

                    82                     83                     84
                     A                      A                      A
 Frequencies --  1366.2630              1373.8628              1384.8910
 Red. masses --     3.3740                 2.9618                 4.4012
 Frc consts  --     3.7108                 3.2937                 4.9734
 IR Inten    --   248.8724                 0.1017                 1.9424

                    85                     86                     87
                     A                      A                      A
 Frequencies --  1391.2002              1393.1623              1393.4429
 Red. masses --     2.4388                 3.0132                 2.2076
 Frc consts  --     2.7810                 3.4458                 2.5255
 IR Inten    --    53.0213               355.1679                 6.7956

                    88                     89                     90
                     A                      A                      A
 Frequencies --  1436.8015              1446.6582              1479.8081
 Red. masses --     7.8766                11.2970                 3.3738
 Frc consts  --     9.5804                13.9298                 4.3530
 IR Inten    --   479.2793                 0.4699                 7.6081

                    91                     92                     93
                     A                      A                      A
 Frequencies --  1480.4290              1484.8673              1515.5032
 Red. masses --     2.5380                 4.4622                 3.1739
 Frc consts  --     3.2773                 5.7966                 4.2950
 IR Inten    --   573.7383                 0.9119                 6.6224

                    94                     95                     96
                     A                      A                      A
 Frequencies --  1518.7911              1565.3651              1574.1398
 Red. masses --     3.5293                 6.2602                 5.0720
 Frc consts  --     4.7966                 9.0380                 7.4048
 IR Inten    --     0.6585                 0.9793               613.2891

                    97                     98                     99
                     A                      A                      A
 Frequencies --  1579.0546              1584.4249              1640.3712
 Red. masses --     5.1055                 6.9697                 5.3645
 Frc consts  --     7.5003                10.3088                 8.5048
 IR Inten    --     1.0102               714.2318                24.6211

                   100                    101                    102
                     A                      A                      A
 Frequencies --  1640.5661              1772.2169              1781.5484
 Red. masses --     5.3778                10.1408                11.2587
 Frc consts  --     8.5280                18.7653                21.0539
 IR Inten    --     9.5293               696.1207                 0.8562

                   103                    104                    105
                     A                      A                      A
 Frequencies --  3203.2837              3203.4040              3209.4994
 Red. masses --     1.0878                 1.0878                 1.0906
 Frc consts  --     6.5764                 6.5770                 6.6191
 IR Inten    --     0.0755                 0.0791                 0.6977

                   106                    107                    108
                     A                      A                      A
 Frequencies --  3209.6143              3223.0439              3223.2197
 Red. masses --     1.0906                 1.0957                 1.0958
 Frc consts  --     6.6197                 6.7060                 6.7076
 IR Inten    --     0.6913                 7.1965                 6.1569

                   109                    110                    111
                     A                      A                      A
 Frequencies --  3231.0297              3231.8290              3249.2119
 Red. masses --     1.0941                 1.0937                 1.0935
 Frc consts  --     6.7296                 6.7306                 6.8018
 IR Inten    --     3.8709                 3.6459                48.9643

                   112                    113                    114
                     A                      A                      A
 Frequencies --  3250.3254              3658.8117              3659.1352
 Red. masses --     1.0935                 1.0799                 1.0799
 Frc consts  --     6.8065                 8.5173                 8.5193
 IR Inten    --    32.6691               116.9410                 4.3777

 - Thermochemistry -
 -------------------
 Temperature   298.150 Kelvin.  Pressure   1.00000 Atm.
 Atom     1 has atomic number  7 and mass  14.00307

 Molecular mass:   400.03402 amu.
 Principal axes and moments of inertia in atomic units:
                           1         2         3
     Eigenvalues --  3940.96340********************
           X           -0.29167   0.65769   0.69453
           Y            0.21691   0.75266  -0.62165
           Z            0.93160   0.03067   0.36219
 This molecule is an asymmetric top.
 Rotational symmetry number  1.
 Warning -- assumption of classical behavior for rotation
           may cause significant error
 Rotational temperatures (Kelvin)      0.02198     0.00348     0.00305
 Rotational constants (GHZ):           0.45794     0.07259     0.06353
 Zero-point vibrational energy     751799.4 (Joules/Mol)
                                  179.68438 (Kcal/Mol)
 Warning -- explicit consideration of  36 degrees of freedom as
           vibrations may cause significant error
 Vibrational temperatures:     26.06    48.65    60.49    71.74   103.87
          (Kelvin)            124.10   171.11   201.65   216.42   226.04
                              252.56   253.62   282.72   337.46   351.41
                              386.30   404.14   444.34   481.01   542.42
                              566.79   592.09   610.63   628.49   655.78
                              680.21   683.78   707.00   732.47   740.23
                              750.99   788.08   804.44   845.55   856.07
                              890.70   936.78   939.57   958.21   976.42
                              986.02  1017.87  1050.76  1079.25  1081.79
                             1097.38  1099.05  1111.99  1120.78  1166.77
                             1166.93  1194.90  1243.83  1257.51  1259.36
                             1261.84  1308.69  1317.32  1348.49  1356.98
                             1403.07  1405.62  1406.28  1457.11  1457.55
                             1478.65  1507.78  1511.05  1566.76  1637.21
                             1656.74  1681.21  1714.92  1721.74  1743.21
                             1744.45  1771.38  1790.80  1844.10  1907.75
                             1911.02  1965.75  1976.68  1992.55  2001.62
                             2004.45  2004.85  2067.23  2081.42  2129.11
                             2130.00  2136.39  2180.47  2185.20  2252.21
                             2264.83  2271.90  2279.63  2360.13  2360.41
                             2549.82  2563.25  4608.80  4608.98  4617.75
                             4617.91  4637.24  4637.49  4648.73  4649.88
                             4674.89  4676.49  5264.21  5264.67

 Zero-point correction=                           0.286345 (Hartree/Particle)
 Thermal correction to Energy=                    0.307909
 Thermal correction to Enthalpy=                  0.308853
 Thermal correction to Gibbs Free Energy=         0.233774
 Sum of electronic and zero-point Energies=          -1901.442315
 Sum of electronic and thermal Energies=             -1901.420752
 Sum of electronic and thermal Enthalpies=           -1901.419807
 Sum of electronic and thermal Free Energies=        -1901.494886

                     E (Thermal)             CV                S
                      KCal/Mol        Cal/Mol-Kelvin    Cal/Mol-Kelvin
 Total                  193.216             86.179            158.017
 Electronic               0.000              0.000              1.377
 Translational            0.889              2.981             43.851
 Rotational               0.889              2.981             36.274
 Vibrational            191.438             80.218             76.514
 Vibration     1          0.593              1.986              6.831
 Vibration     2          0.594              1.983              5.592
 Vibration     3          0.595              1.980              5.161
 Vibration     4          0.595              1.978              4.823
 Vibration     5          0.598              1.967              4.093
 Vibration     6          0.601              1.959              3.743
 Vibration     7          0.609              1.934              3.118
 Vibration     8          0.615              1.913              2.802
 Vibration     9          0.618              1.902              2.667
 Vibration    10          0.621              1.895              2.584
 Vibration    11          0.627              1.873              2.375
 Vibration    12          0.628              1.872              2.368
 Vibration    13          0.636              1.845              2.166
 Vibration    14          0.654              1.788              1.844
 Vibration    15          0.660              1.772              1.772
 Vibration    16          0.673              1.731              1.606
 Vibration    17          0.681              1.709              1.528
 Vibration    18          0.698              1.657              1.369
 Vibration    19          0.716              1.607              1.239
 Vibration    20          0.748              1.519              1.051
 Vibration    21          0.761              1.483              0.985
 Vibration    22          0.775              1.445              0.921
 Vibration    23          0.786              1.417              0.877
 Vibration    24          0.797              1.390              0.837
 Vibration    25          0.814              1.348              0.778
 Vibration    26          0.830              1.310              0.730
 Vibration    27          0.832              1.305              0.723
 Vibration    28          0.847              1.269              0.680
 Vibration    29          0.864              1.230              0.636
 Vibration    30          0.870              1.218              0.623
 Vibration    31          0.877              1.201              0.605
 Vibration    32          0.903              1.145              0.549
 Vibration    33          0.915              1.120              0.526
 Vibration    34          0.945              1.058              0.471
 Vibration    35          0.953              1.042              0.458
 Vibration    36          0.979              0.992              0.418

 Optimization completed.
    -- Stationary point found.
 Normal termination of Gaussian 09 at Thu Sep 14 21:40:57 2023.
