 Gaussian 09, Revision A.02,
 Gaussian 09:  EM64L-G09RevA.02 11-Jun-2009

 ----------------------------------------------------------------
 # td=(nstates=10) cam-b3lyp/6-31+g(d,p) nosymm geom=connectivity
 ----------------------------------------------------------------

 -------
 Energy:
 -------
 Symbolic Z-matrix:
 Charge =  0 Multiplicity = 1

                          Input orientation:
 ---------------------------------------------------------------------
 Center     Atomic      Atomic             Coordinates (Angstroms)
 Number     Number       Type             X           Y           Z
 ---------------------------------------------------------------------
      1          7           0        1.355555   -0.433386   -0.076395
      2          6           0        0.706675   -0.293545    1.182565
      3          6           0        2.305660    0.563309   -0.314243
      4          6           0        2.322644    1.362367    0.824757
      5          6           0        1.376792    0.855873    1.768728
      6          6           0        1.496355    1.563046    2.961134
      7          6           0        3.046131    2.463938    1.438682
      8          7           0        2.511768    2.501091    2.757331
      9          8           0       -0.206973   -1.018922    1.562151
     10          8           0        3.896520    3.245991    1.026185
     11          1           0        2.673427    3.303566    3.347883
     12          1           0        0.952863   -1.019753   -0.792550
     13          6           0        4.063776    0.151248   -3.625415
     14          6           0        3.290879   -0.358562   -2.512107
     15          6           0        2.925297   -1.738098   -2.517900
     16          6           0        3.268285   -2.532478   -3.588085
     17          1           0        2.993851   -3.583169   -3.580458
     18          6           0        3.993762   -2.012953   -4.701844
     19          1           0        4.241187   -2.671592   -5.528724
     20          6           0        4.395530   -0.701136   -4.721379
     21          1           0        4.968556   -0.303253   -5.553767
     22          6           0        3.061554    0.633096   -1.527618
     23          6           0        4.412177    1.488380   -3.454733
     24          1           0        4.991121    2.108156   -4.126452
     25         16           0        3.836186    2.129625   -1.983818
     26          6           0        1.151938    1.911681    5.493276
     27          6           0        0.124056    1.630182    6.473475
     28          6           0        0.295510    2.033012    7.832117
     29          1           0       -0.487427    1.822882    8.554882
     30          6           0        1.451014    2.671414    8.206196
     31          1           0        1.593551    2.982011    9.236713
     32          6           0        2.486178    2.913598    7.254151
     33          1           0        3.406220    3.387173    7.583641
     34          6           0        2.352291    2.544937    5.935013
     35          6           0       -0.956291    0.947442    5.921001
     36          1           0       -1.849749    0.609025    6.428661
     37          6           0        0.799499    1.440322    4.205208
     38         16           0       -0.749063    0.635874    4.257771
     39          1           0        2.417505   -2.181449   -1.669414
     40          1           0        3.180576    2.701130    5.253927
 ---------------------------------------------------------------------

 SCF Done:  E(RCAM-B3LYP) =  -1901.35896243     A.U. after   20 cycles

 Excitation energies and oscillator strengths:

 Excited state symmetry could not be determined.
 Excited State   1:      Singlet-?Sym    2.3017 eV  538.66 nm  f=0.8795  <S**2>=0.000
     102 ->105        -0.10280
     103 ->104         0.69824
 This state for optimization and/or second-order correction.
 Copying the excited state density for this state as the 1-particle RhoCI density.

 Excited state symmetry could not be determined.
 Excited State   2:      Singlet-?Sym    3.1575 eV  392.67 nm  f=0.0000  <S**2>=0.000
     102 ->104        -0.15234
     102 ->106        -0.10752
     103 ->105         0.67677

 Excited state symmetry could not be determined.
 Excited State   3:      Singlet-?Sym    3.5502 eV  349.23 nm  f=0.0003  <S**2>=0.000
     101 ->105         0.17093
     102 ->104         0.64041
     103 ->105         0.13873

 Excited state symmetry could not be determined.
 Excited State   4:      Singlet-?Sym    3.7901 eV  327.12 nm  f=0.1257  <S**2>=0.000
     101 ->104        -0.36815
     102 ->105        -0.28902
     103 ->106         0.50858

 Excited state symmetry could not be determined.
 Excited State   5:      Singlet-?Sym    3.8003 eV  326.25 nm  f=0.1097  <S**2>=0.000
     101 ->104         0.53772
     102 ->107         0.10811
     103 ->106         0.40226

 Excited state symmetry could not be determined.
 Excited State   6:      Singlet-?Sym    3.9762 eV  311.82 nm  f=0.0006  <S**2>=0.000
      96 ->105         0.10050
      98 ->104         0.55046
      98 ->106        -0.17430
     100 ->104         0.30419
     102 ->104         0.11070

 Excited state symmetry could not be determined.
 Excited State   7:      Singlet-?Sym    4.0906 eV  303.10 nm  f=0.0000  <S**2>=0.000
      97 ->104         0.63400
      97 ->106        -0.18899
      98 ->104        -0.12566
     100 ->104         0.11229

 Excited state symmetry could not be determined.
 Excited State   8:      Singlet-?Sym    4.3022 eV  288.18 nm  f=0.1572  <S**2>=0.000
      96 ->104         0.36992
      96 ->106        -0.13304
      99 ->104         0.47084
     100 ->105         0.21837
     103 ->106         0.12496

 Excited state symmetry could not be determined.
 Excited State   9:      Singlet-?Sym    4.3094 eV  287.71 nm  f=0.0102  <S**2>=0.000
      97 ->104        -0.17377
      98 ->104        -0.26155
      99 ->105         0.25451
     100 ->104         0.40505
     102 ->106         0.14873
     103 ->107         0.30953

 Excited state symmetry could not be determined.
 Excited State  10:      Singlet-?Sym    4.4685 eV  277.46 nm  f=0.1175  <S**2>=0.000
      96 ->104         0.46751
      96 ->106        -0.12943
      98 ->105         0.18914
      98 ->107         0.10142
      99 ->104        -0.34148
     100 ->105        -0.18684

 Alpha  occ. eigenvalues --  -89.01480 -89.01478 -19.20736 -19.20733 -14.46217
 Alpha  occ. eigenvalues --  -14.46217 -10.38193 -10.38191 -10.35226 -10.35223
 Alpha  occ. eigenvalues --  -10.32189 -10.32185 -10.31469 -10.31465 -10.30327
 Alpha  occ. eigenvalues --  -10.30321 -10.29650 -10.29647 -10.28955 -10.28953
 Alpha  occ. eigenvalues --  -10.28912 -10.28907 -10.28795 -10.28791 -10.28453
 Alpha  occ. eigenvalues --  -10.28450 -10.27054 -10.27010  -8.07315  -8.07313
 Alpha  occ. eigenvalues --   -6.03818  -6.03816  -6.03399  -6.03397  -6.03201
 Alpha  occ. eigenvalues --   -6.03199  -1.13256  -1.12656  -1.06185  -1.04902
 Alpha  occ. eigenvalues --   -0.99833  -0.99751  -0.93440  -0.93435  -0.89459
 Alpha  occ. eigenvalues --   -0.88074  -0.87712  -0.84557  -0.83584  -0.83373
 Alpha  occ. eigenvalues --   -0.82732  -0.78098  -0.75696  -0.75533  -0.71228
 Alpha  occ. eigenvalues --   -0.71217  -0.69105  -0.67548  -0.67318  -0.66388
 Alpha  occ. eigenvalues --   -0.63878  -0.61835  -0.61534  -0.60952  -0.57439
 Alpha  occ. eigenvalues --   -0.57070  -0.55861  -0.54963  -0.54908  -0.54298
 Alpha  occ. eigenvalues --   -0.53226  -0.52881  -0.51820  -0.51606  -0.51256
 Alpha  occ. eigenvalues --   -0.50192  -0.49812  -0.49808  -0.49211  -0.48998
 Alpha  occ. eigenvalues --   -0.48938  -0.48605  -0.46451  -0.44354  -0.44082
 Alpha  occ. eigenvalues --   -0.43337  -0.42898  -0.42773  -0.42004  -0.41978
 Alpha  occ. eigenvalues --   -0.41684  -0.40675  -0.40454  -0.35960  -0.35724
 Alpha  occ. eigenvalues --   -0.34379  -0.33123  -0.32759  -0.31593  -0.31537
 Alpha  occ. eigenvalues --   -0.29407  -0.27799  -0.22794
 Alpha virt. eigenvalues --   -0.07667  -0.04083  -0.01236   0.02368   0.02382
 Alpha virt. eigenvalues --    0.02551   0.03183   0.03290   0.03881   0.04110
 Alpha virt. eigenvalues --    0.04210   0.04346   0.04694   0.05185   0.05644

 Mulliken atomic charges:
              1
     1  N   -0.418581
     2  C    0.485925
     3  C    0.601062
     4  C   -0.272472
     5  C   -0.270212
     6  C    0.602315
     7  C    0.485955
     8  N   -0.418224
     9  O   -0.546227
    10  O   -0.546239
    11  H    0.311687
    12  H    0.311884
    13  C   -0.087241
    14  C   -0.254230
    15  C   -0.421785
    16  C   -0.247766
    17  H    0.140666
    18  C   -0.114188
    19  H    0.138872
    20  C    0.453417
    21  H    0.140685
    22  C   -0.662569
    23  C    0.085810
    24  H    0.177541
    25  S    0.354055
    26  C   -0.254125
    27  C   -0.089230
    28  C    0.455868
    29  H    0.140689
    30  C   -0.113717
    31  H    0.138887
    32  C   -0.247258
    33  H    0.140685
    34  C   -0.421458
    35  C    0.084937
    36  H    0.177541
    37  C   -0.661719
    38  S    0.353706
    39  H    0.132585
    40  H    0.132468
 Sum of Mulliken atomic charges =   0.00000

 Dipole moment (field-independent basis, Debye):
    X=              0.1902    Y=             -0.1697    Z=              0.1052  Tot=              0.2757
 Quadrupole moment (field-independent basis, Debye-Ang):
   XX=           -174.8151   YY=           -176.5688   ZZ=           -123.8595
   XY=             -5.6457   XZ=            -14.8613   YZ=             14.4805

 Normal termination of Gaussian 09 at Wed Sep  6 13:44:06 2023.
