 Gaussian 09, Revision A.02,
 Gaussian 09:  EM64L-G09RevA.02 11-Jun-2009

 ---------------------------------------------------------
 # td=(nstates=10) cam-b3lyp/6-31+g(d,p) geom=connectivity
 ---------------------------------------------------------

 -------
 Energy:
 -------
 Symbolic Z-matrix:
 Charge =  0 Multiplicity = 1

                         Standard orientation:
 ---------------------------------------------------------------------
 Center     Atomic      Atomic             Coordinates (Angstroms)
 Number     Number       Type             X           Y           Z
 ---------------------------------------------------------------------
      1          7           0       -1.605204   -1.391513    0.000026
      2          6           0       -0.249917   -1.797763    0.000014
      3          6           0       -1.756051   -0.013494    0.000005
      4          6           0       -0.475275    0.531818   -0.000008
      5          6           0        0.475273   -0.531815    0.000000
      6          6           0        1.756051    0.013494   -0.000014
      7          6           0        0.249917    1.797766   -0.000037
      8          7           0        1.605206    1.391514   -0.000039
      9          8           0        0.116446   -2.971104    0.000039
     10          8           0       -0.116446    2.971106   -0.000050
     11          1           0        2.385990    2.038521   -0.000062
     12          1           0       -2.385980   -2.038528    0.000040
     13          6           0        4.289577    0.109197   -0.000030
     14          6           0        5.563126   -0.588845   -0.000022
     15          6           0        5.610937   -2.011041    0.000005
     16          1           0        6.569487   -2.517654    0.000014
     17          6           0        4.415952   -2.690946    0.000019
     18          1           0        4.414200   -3.776432    0.000034
     19          6           0        3.159684   -2.021145    0.000014
     20          1           0        2.250843   -2.617916    0.000025
     21          6           0        3.053434   -0.634223   -0.000010
     22         16           0        6.038154    1.763993   -0.000062
     23          7           0        4.421890    1.441622   -0.000057
     24          7           0        6.622069    0.232731   -0.000044
     25          6           0       -5.563127    0.588845    0.000035
     26          6           0       -4.289578   -0.109199    0.000028
     27          6           0       -3.053432    0.634223    0.000010
     28          6           0       -3.159683    2.021144   -0.000002
     29          1           0       -2.250843    2.617916   -0.000020
     30          6           0       -4.415951    2.690945    0.000005
     31          1           0       -4.414200    3.776431   -0.000004
     32          6           0       -5.610936    2.011041    0.000024
     33          1           0       -6.569485    2.517657    0.000026
     34         16           0       -6.038155   -1.763995    0.000060
     35          7           0       -6.622071   -0.232730    0.000053
     36          7           0       -4.421890   -1.441623    0.000040
 ---------------------------------------------------------------------

 SCF Done:  E(RCAM-B3LYP) =  -1965.53844196     A.U. after   17 cycles

 Excitation energies and oscillator strengths:

 Excited State   1:      Singlet-A      2.3329 eV  531.46 nm  f=0.5981  <S**2>=0.000
     103 ->104         0.69867
 This state for optimization and/or second-order correction.
 Copying the excited state density for this state as the 1-particle RhoCI density.

 Excited State   2:      Singlet-A      2.9389 eV  421.87 nm  f=0.0000  <S**2>=0.000
     103 ->105         0.69451

 Excited State   3:      Singlet-A      3.5323 eV  351.01 nm  f=0.0535  <S**2>=0.000
     102 ->105        -0.12428
     103 ->106         0.68550

 Excited State   4:      Singlet-A      3.6536 eV  339.35 nm  f=0.0000  <S**2>=0.000
      97 ->104        -0.17468
      97 ->106        -0.10495
     100 ->104         0.44164
     100 ->106         0.22922
     102 ->104         0.41558
     102 ->106         0.15528

 Excited State   5:      Singlet-A      3.7705 eV  328.83 nm  f=0.0000  <S**2>=0.000
      99 ->104         0.61028
      99 ->106         0.29342

 Excited State   6:      Singlet-A      4.0606 eV  305.33 nm  f=0.3065  <S**2>=0.000
     100 ->105        -0.17367
     101 ->104         0.60122
     102 ->105         0.28635

 Excited State   7:      Singlet-A      4.0874 eV  303.33 nm  f=0.0000  <S**2>=0.000
     100 ->104        -0.39466
     101 ->105         0.33829
     102 ->104         0.44612

 Excited State   8:      Singlet-A      4.2136 eV  294.25 nm  f=0.0000  <S**2>=0.000
      96 ->104         0.56823
      96 ->106         0.28339
      99 ->105        -0.20811
      99 ->107        -0.14757

 Excited State   9:      Singlet-A      4.3994 eV  281.82 nm  f=0.3154  <S**2>=0.000
      97 ->105        -0.32772
      98 ->104         0.52538
     100 ->105        -0.17388
     102 ->105        -0.11848
     102 ->112         0.10668
     103 ->113         0.15039

 Excited State  10:      Singlet-A      4.4024 eV  281.63 nm  f=0.0000  <S**2>=0.000
      97 ->104         0.50162
      98 ->105        -0.37582
     100 ->104         0.15423
     102 ->113        -0.10746
     103 ->112        -0.15591

 The electronic state is 1-A.
 Alpha  occ. eigenvalues --  -89.07495 -89.07495 -19.21602 -19.21602 -14.47500
 Alpha  occ. eigenvalues --  -14.47500 -14.47365 -14.47365 -14.46290 -14.46290
 Alpha  occ. eigenvalues --  -10.38893 -10.38892 -10.35629 -10.35629 -10.34896
 Alpha  occ. eigenvalues --  -10.34896 -10.34342 -10.34342 -10.32085 -10.32085
 Alpha  occ. eigenvalues --  -10.30710 -10.30710 -10.30394 -10.30394 -10.30339
 Alpha  occ. eigenvalues --  -10.30339 -10.27754 -10.27709  -8.12856  -8.12856
 Alpha  occ. eigenvalues --   -6.09526  -6.09526  -6.08923  -6.08923  -6.08676
 Alpha  occ. eigenvalues --   -6.08676  -1.13989  -1.13404  -1.12950  -1.12948
 Alpha  occ. eigenvalues --   -1.06888  -1.05548  -0.99946  -0.99870  -0.96953
 Alpha  occ. eigenvalues --   -0.96930  -0.89983  -0.88721  -0.87927  -0.86704
 Alpha  occ. eigenvalues --   -0.86579  -0.81347  -0.78396  -0.76090  -0.74840
 Alpha  occ. eigenvalues --   -0.74269  -0.71695  -0.71184  -0.70345  -0.68919
 Alpha  occ. eigenvalues --   -0.65587  -0.62606  -0.61316  -0.60829  -0.60164
 Alpha  occ. eigenvalues --   -0.59237  -0.58192  -0.57303  -0.56818  -0.56153
 Alpha  occ. eigenvalues --   -0.55659  -0.55159  -0.55044  -0.54100  -0.52916
 Alpha  occ. eigenvalues --   -0.51509  -0.51090  -0.50418  -0.48480  -0.48312
 Alpha  occ. eigenvalues --   -0.46916  -0.46913  -0.46840  -0.46379  -0.46299
 Alpha  occ. eigenvalues --   -0.46138  -0.45096  -0.43118  -0.42812  -0.41330
 Alpha  occ. eigenvalues --   -0.41315  -0.40376  -0.40196  -0.39394  -0.39329
 Alpha  occ. eigenvalues --   -0.35207  -0.34118  -0.33935  -0.33381  -0.33284
 Alpha  occ. eigenvalues --   -0.32630  -0.32013  -0.24898
 Alpha virt. eigenvalues --   -0.09487  -0.07356  -0.04524   0.00857   0.02224
 Alpha virt. eigenvalues --    0.02296   0.02580   0.02907   0.02937   0.02976
 Alpha virt. eigenvalues --    0.03766   0.03843   0.04324   0.04699   0.04846

 Mulliken atomic charges:
              1
     1  N   -0.482502
     2  C    0.633048
     3  C    0.665720
     4  C   -0.429953
     5  C   -0.429957
     6  C    0.665722
     7  C    0.633046
     8  N   -0.482500
     9  O   -0.548258
    10  O   -0.548257
    11  H    0.353381
    12  H    0.353381
    13  C    0.360044
    14  C    0.040970
    15  C   -0.714731
    16  H    0.164016
    17  C   -0.332350
    18  H    0.156126
    19  C   -0.546863
    20  H    0.194439
    21  C    0.446689
    22  S    0.938809
    23  N   -0.515953
    24  N   -0.382636
    25  C    0.040971
    26  C    0.360051
    27  C    0.446686
    28  C   -0.546857
    29  H    0.194438
    30  C   -0.332351
    31  H    0.156125
    32  C   -0.714732
    33  H    0.164016
    34  S    0.938806
    35  N   -0.382636
    36  N   -0.515951
 Sum of Mulliken atomic charges =   0.00000

 Dipole moment (field-independent basis, Debye):
    X=              0.0000    Y=              0.0000    Z=              0.0000  Tot=              0.0000
 Quadrupole moment (field-independent basis, Debye-Ang):
   XX=           -151.3157   YY=           -175.5241   ZZ=           -174.9264
   XY=             -5.3448   XZ=              0.0000   YZ=              0.0001

 Normal termination of Gaussian 09 at Wed Sep  6 15:08:36 2023.
