 Gaussian 09, Revision A.02,
 Gaussian 09:  EM64L-G09RevA.02 11-Jun-2009

 ----------------------------------------------------
 # opt=tight freq b3lyp/6-31+g(d,p) geom=connectivity
 ----------------------------------------------------

 -------
 Energy:
 -------
 Symbolic Z-matrix:
 Charge =  0 Multiplicity = 1

 SCF Done:  E(RB3LYP) =  -1966.12471195     A.U. after   23 cycles
 SCF Done:  E(RB3LYP) =  -1966.12471196     A.U. after   24 cycles
 SCF Done:  E(RB3LYP) =  -1966.12471196     A.U. after   27 cycles
 SCF Done:  E(RB3LYP) =  -1966.12471196     A.U. after   27 cycles
 Optimization completed.
    -- Stationary point found.
 Normal termination of Gaussian 09 at Tue Sep  5 16:48:07 2023.

 ----------------------------------------------------------------------
 #N Geom=AllCheck Guess=TCheck SCRF=Check GenChk RB3LYP/6-31+G(d,p) Fre
 q
 ----------------------------------------------------------------------

 Energy:
 -------
 Redundant internal coordinates taken from checkpoint file:
 /home/nathalia.rosa/DPP-SUB/DPP-SUB-6/DPP-SUB-6-OPT-FREQ.chk
 Charge =  0 Multiplicity = 1

                         Standard orientation:
 ---------------------------------------------------------------------
 Center     Atomic      Atomic             Coordinates (Angstroms)
 Number     Number       Type             X           Y           Z
 ---------------------------------------------------------------------
      1          7           0       -1.605204   -1.391513    0.000026
      2          6           0       -0.249917   -1.797763    0.000014
      3          6           0       -1.756051   -0.013494    0.000005
      4          6           0       -0.475275    0.531818   -0.000008
      5          6           0        0.475273   -0.531815    0.000000
      6          6           0        1.756051    0.013494   -0.000014
      7          6           0        0.249917    1.797766   -0.000037
      8          7           0        1.605206    1.391514   -0.000039
      9          8           0        0.116446   -2.971104    0.000039
     10          8           0       -0.116446    2.971106   -0.000050
     11          1           0        2.385990    2.038521   -0.000062
     12          1           0       -2.385980   -2.038528    0.000040
     13          6           0        4.289577    0.109197   -0.000030
     14          6           0        5.563126   -0.588845   -0.000022
     15          6           0        5.610937   -2.011041    0.000005
     16          1           0        6.569487   -2.517654    0.000014
     17          6           0        4.415952   -2.690946    0.000019
     18          1           0        4.414200   -3.776432    0.000034
     19          6           0        3.159684   -2.021145    0.000014
     20          1           0        2.250843   -2.617916    0.000025
     21          6           0        3.053434   -0.634223   -0.000010
     22         16           0        6.038154    1.763993   -0.000062
     23          7           0        4.421890    1.441622   -0.000057
     24          7           0        6.622069    0.232731   -0.000044
     25          6           0       -5.563127    0.588845    0.000035
     26          6           0       -4.289578   -0.109199    0.000028
     27          6           0       -3.053432    0.634223    0.000010
     28          6           0       -3.159683    2.021144   -0.000002
     29          1           0       -2.250843    2.617916   -0.000020
     30          6           0       -4.415951    2.690945    0.000005
     31          1           0       -4.414200    3.776431   -0.000004
     32          6           0       -5.610936    2.011041    0.000024
     33          1           0       -6.569485    2.517657    0.000026
     34         16           0       -6.038155   -1.763995    0.000060
     35          7           0       -6.622071   -0.232730    0.000053
     36          7           0       -4.421890   -1.441623    0.000040
 ---------------------------------------------------------------------

 SCF Done:  E(RB3LYP) =  -1966.12471196     A.U. after    1 cycles

 The electronic state is 1-A.
 Alpha  occ. eigenvalues --  -89.00035 -89.00035 -19.14454 -19.14454 -14.39972
 Alpha  occ. eigenvalues --  -14.39972 -14.39748 -14.39748 -14.39160 -14.39160
 Alpha  occ. eigenvalues --  -10.31192 -10.31192 -10.28003 -10.28003 -10.27408
 Alpha  occ. eigenvalues --  -10.27408 -10.26879 -10.26879 -10.24697 -10.24697
 Alpha  occ. eigenvalues --  -10.23226 -10.23225 -10.22956 -10.22956 -10.22831
 Alpha  occ. eigenvalues --  -10.22831 -10.20712 -10.20667  -8.05352  -8.05352
 Alpha  occ. eigenvalues --   -6.01916  -6.01916  -6.01331  -6.01331  -6.01092
 Alpha  occ. eigenvalues --   -6.01092  -1.05880  -1.05361  -1.04493  -1.04489
 Alpha  occ. eigenvalues --   -0.98805  -0.97455  -0.91843  -0.91779  -0.88552
 Alpha  occ. eigenvalues --   -0.88540  -0.82084  -0.80644  -0.79870  -0.78658
 Alpha  occ. eigenvalues --   -0.78552  -0.73571  -0.70722  -0.68664  -0.67301
 Alpha  occ. eigenvalues --   -0.66769  -0.64241  -0.63787  -0.62913  -0.61579
 Alpha  occ. eigenvalues --   -0.58453  -0.55547  -0.54466  -0.53818  -0.53284
 Alpha  occ. eigenvalues --   -0.52335  -0.51231  -0.50368  -0.49910  -0.49361
 Alpha  occ. eigenvalues --   -0.48436  -0.48305  -0.47759  -0.46903  -0.46380
 Alpha  occ. eigenvalues --   -0.44809  -0.44379  -0.43495  -0.41915  -0.41763
 Alpha  occ. eigenvalues --   -0.40696  -0.40687  -0.40512  -0.40057  -0.39837
 Alpha  occ. eigenvalues --   -0.39603  -0.38571  -0.36748  -0.36494  -0.35032
 Alpha  occ. eigenvalues --   -0.35019  -0.34230  -0.34183  -0.32976  -0.32934
 Alpha  occ. eigenvalues --   -0.29008  -0.28920  -0.28832  -0.27741  -0.27427
 Alpha  occ. eigenvalues --   -0.27173  -0.26996  -0.20755
 Alpha virt. eigenvalues --   -0.13071  -0.11375  -0.08944  -0.04074  -0.02265
 Alpha virt. eigenvalues --   -0.02264  -0.01886  -0.01846  -0.00666  -0.00389
 Alpha virt. eigenvalues --    0.00015   0.00999   0.01086   0.01263   0.01745

 Mulliken atomic charges:
              1
     1  N   -0.463057
     2  C    0.612547
     3  C    0.696744
     4  C   -0.414160
     5  C   -0.414164
     6  C    0.696745
     7  C    0.612545
     8  N   -0.463055
     9  O   -0.535655
    10  O   -0.535654
    11  H    0.347694
    12  H    0.347693
    13  C    0.353576
    14  C    0.018103
    15  C   -0.729605
    16  H    0.153582
    17  C   -0.332947
    18  H    0.147722
    19  C   -0.604201
    20  H    0.188055
    21  C    0.484931
    22  S    0.940548
    23  N   -0.494387
    24  N   -0.369491
    25  C    0.018103
    26  C    0.353581
    27  C    0.484928
    28  C   -0.604195
    29  H    0.188055
    30  C   -0.332948
    31  H    0.147722
    32  C   -0.729605
    33  H    0.153582
    34  S    0.940546
    35  N   -0.369491
    36  N   -0.494387
 Sum of Mulliken atomic charges =   0.00000

 Dipole moment (field-independent basis, Debye):
    X=              0.0000    Y=              0.0000    Z=              0.0000  Tot=              0.0000
 Quadrupole moment (field-independent basis, Debye-Ang):
   XX=           -152.7477   YY=           -175.2363   ZZ=           -174.3089
   XY=             -4.7383   XZ=              0.0000   YZ=              0.0001

  Exact polarizability: 699.266   0.129 348.797   0.038   0.001 134.102
 Approx polarizability:1117.963  37.039 727.643  -0.006  -0.007 222.108

                     1                      2                      3
                     A                      A                      A
 Frequencies --    20.4432                36.6759                50.8318
 Red. masses --    13.4869                 6.5981                10.0972
 Frc consts  --     0.0033                 0.0052                 0.0154
 IR Inten    --     0.0803                 1.3718                 0.0000

                     4                      5                      6
                     A                      A                      A
 Frequencies --    59.5643                80.2257               120.6841
 Red. masses --     9.8495                 8.1006                11.4278
 Frc consts  --     0.0206                 0.0307                 0.0981
 IR Inten    --     1.2125                 0.0000                 4.0235

                     7                      8                      9
                     A                      A                      A
 Frequencies --   121.8666               151.7758               163.8297
 Red. masses --    12.3990                 9.8560                 8.9608
 Frc consts  --     0.1085                 0.1338                 0.1417
 IR Inten    --     0.0013                 0.2148                 0.0000

                    10                     11                     12
                     A                      A                      A
 Frequencies --   179.5689               193.4503               195.9708
 Red. masses --     8.0128                 7.2362                13.9519
 Frc consts  --     0.1522                 0.1596                 0.3157
 IR Inten    --     0.0000                 1.6726                 3.0228

                    13                     14                     15
                     A                      A                      A
 Frequencies --   212.4964               235.6706               265.9447
 Red. masses --     8.2694                 9.6761                10.3512
 Frc consts  --     0.2200                 0.3166                 0.4313
 IR Inten    --     0.0000                 2.8079                 0.0000

                    16                     17                     18
                     A                      A                      A
 Frequencies --   266.4872               268.6655               312.2846
 Red. masses --     5.3434                 4.7645                10.4287
 Frc consts  --     0.2236                 0.2026                 0.5992
 IR Inten    --     0.0004                 3.1563                12.2076

                    19                     20                     21
                     A                      A                      A
 Frequencies --   366.7435               386.6804               426.4347
 Red. masses --     9.0500                 7.9920                 8.6303
 Frc consts  --     0.7172                 0.7041                 0.9247
 IR Inten    --    15.8557                 0.0002                 0.0000

                    22                     23                     24
                     A                      A                      A
 Frequencies --   459.5367               463.2627               466.4885
 Red. masses --     7.6690                 8.8940                 7.4664
 Frc consts  --     0.9542                 1.1246                 0.9573
 IR Inten    --    43.9687                 0.0000                18.0764

                    25                     26                     27
                     A                      A                      A
 Frequencies --   495.3976               529.3215               548.2909
 Red. masses --     8.4258                10.2717                 5.6091
 Frc consts  --     1.2183                 1.6956                 0.9935
 IR Inten    --     0.0000                 1.4266                 0.0350

                    28                     29                     30
                     A                      A                      A
 Frequencies --   550.1117               553.9475               557.8076
 Red. masses --    10.8750                 3.9076                 4.1732
 Frc consts  --     1.9390                 0.7065                 0.7651
 IR Inten    --     0.0001                 0.0001                 0.5209

                    31                     32                     33
                     A                      A                      A
 Frequencies --   593.2971               595.9936               600.0248
 Red. masses --     5.5188                 7.6101                 7.1958
 Frc consts  --     1.1446                 1.5927                 1.5264
 IR Inten    --     0.0001                 0.0002                 6.8168

                    34                     35                     36
                     A                      A                      A
 Frequencies --   633.9441               638.2416               642.5944
 Red. masses --     1.2173                 5.8405                 1.3586
 Frc consts  --     0.2882                 1.4017                 0.3305
 IR Inten    --   104.6958                 0.0019                 0.0000

                    37                     38                     39
                     A                      A                      A
 Frequencies --   684.9250               693.9324               696.4782
 Red. masses --     4.4722                 8.0013                 9.4311
 Frc consts  --     1.2361                 2.2701                 2.6954
 IR Inten    --    24.0076                 0.0006                 4.3600

                    40                     41                     42
                     A                      A                      A
 Frequencies --   706.5178               725.6789               737.9326
 Red. masses --    11.4113                 3.6065                 9.4277
 Frc consts  --     3.3561                 1.1190                 3.0247
 IR Inten    --     0.0000                 0.0002                11.6692

                    43                     44                     45
                     A                      A                      A
 Frequencies --   752.3361               761.0197               766.1496
 Red. masses --     4.9888                 3.3524                 3.0187
 Frc consts  --     1.6637                 1.1439                 1.0440
 IR Inten    --    32.0735                 0.0165                69.3147

                    46                     47                     48
                     A                      A                      A
 Frequencies --   789.2522               800.7155               816.3739
 Red. masses --     4.9995                10.8278                 1.8926
 Frc consts  --     1.8349                 4.0902                 0.7432
 IR Inten    --     0.0029                 3.1986                60.0978

                    49                     50                     51
                     A                      A                      A
 Frequencies --   819.0863               826.6416               831.9588
 Red. masses --     2.1271                10.6315                 9.9411
 Frc consts  --     0.8408                 4.2803                 4.0540
 IR Inten    --     0.0008                 0.0000                43.1343

                    52                     53                     54
                     A                      A                      A
 Frequencies --   837.3951               846.9017               870.2083
 Red. masses --    11.8668                13.7668                11.2330
 Frc consts  --     4.9028                 5.8177                 5.0118
 IR Inten    --     0.0002               105.2643                 0.0000

                    55                     56                     57
                     A                      A                      A
 Frequencies --   898.9567               913.9788               965.0163
 Red. masses --     8.0742                 8.1181                 1.3159
 Frc consts  --     3.8444                 3.9955                 0.7220
 IR Inten    --    58.4428                 0.0011                 2.6291

                    58                     59                     60
                     A                      A                      A
 Frequencies --   965.2749               976.2996              1012.9740
 Red. masses --     1.3178                 7.4781                 5.1765
 Frc consts  --     0.7235                 4.1996                 3.1296
 IR Inten    --     0.0002                 4.0728                 0.0001

                    61                     62                     63
                     A                      A                      A
 Frequencies --  1016.8467              1017.3817              1070.0428
 Red. masses --     1.3349                 1.3381                 2.2826
 Frc consts  --     0.8132                 0.8160                 1.5398
 IR Inten    --     2.2875                 0.0002                45.7874

                    64                     65                     66
                     A                      A                      A
 Frequencies --  1073.5180              1114.1327              1147.4468
 Red. masses --     2.2497                 3.8409                 1.8418
 Frc consts  --     1.5275                 2.8090                 1.4288
 IR Inten    --     0.0000                29.1348                 0.0000

                    67                     68                     69
                     A                      A                      A
 Frequencies --  1159.5180              1196.7936              1209.7018
 Red. masses --     2.7516                 2.2256                 1.7917
 Frc consts  --     2.1797                 1.8781                 1.5448
 IR Inten    --   121.0932                33.5885                 0.0003

                    70                     71                     72
                     A                      A                      A
 Frequencies --  1236.4869              1295.8472              1323.1223
 Red. masses --     2.4680                 4.9928                 1.9360
 Frc consts  --     2.2232                 4.9397                 1.9969
 IR Inten    --    23.4429                 0.0010                 0.0127

                    73                     74                     75
                     A                      A                      A
 Frequencies --  1323.8319              1338.3768              1341.0275
 Red. masses --     2.1510                 4.1609                 4.3480
 Frc consts  --     2.2210                 4.3913                 4.6070
 IR Inten    --   151.5180                 0.0002                 1.7338

                    76                     77                     78
                     A                      A                      A
 Frequencies --  1368.9331              1371.2901              1374.1653
 Red. masses --     4.9385                 3.0634                 2.7256
 Frc consts  --     5.4527                 3.3940                 3.0324
 IR Inten    --     0.0000                 0.0003                20.0480

                    79                     80                     81
                     A                      A                      A
 Frequencies --  1380.4050              1391.2219              1422.1237
 Red. masses --     4.4242                 5.8143                 3.5057
 Frc consts  --     4.9671                 6.6304                 4.1774
 IR Inten    --    53.4451                 0.0000                 0.0000

                    82                     83                     84
                     A                      A                      A
 Frequencies --  1433.4936              1462.0941              1467.3580
 Red. masses --     3.1886                 4.4579                 3.9834
 Frc consts  --     3.8605                 5.6148                 5.0533
 IR Inten    --    64.4826                 0.0000               120.8161

                    85                     86                     87
                     A                      A                      A
 Frequencies --  1532.8183              1533.7319              1565.0466
 Red. masses --     3.9952                 4.0286                 4.8755
 Frc consts  --     5.5305                 5.5835                 7.0360
 IR Inten    --    67.9829                 0.0020                 0.0016

                    88                     89                     90
                     A                      A                      A
 Frequencies --  1565.7852              1580.3305              1620.1353
 Red. masses --     5.1473                 7.1355                 7.4733
 Frc consts  --     7.4353                10.4995                11.5575
 IR Inten    --    26.5667                 0.0001               345.3556

                    91                     92                     93
                     A                      A                      A
 Frequencies --  1635.2398              1636.4521              1736.4246
 Red. masses --     5.2166                 5.5956                 9.5713
 Frc consts  --     8.2186                 8.8289                17.0032
 IR Inten    --     0.0002                39.0431               897.1239

                    94                     95                     96
                     A                      A                      A
 Frequencies --  1748.9388              3175.7869              3176.3608
 Red. masses --    10.9293                 1.0943                 1.0942
 Frc consts  --    19.6967                 6.5023                 6.5041
 IR Inten    --     0.0001                15.3434                 0.0038

                    97                     98                     99
                     A                      A                      A
 Frequencies --  3204.0191              3204.0794              3226.8798
 Red. masses --     1.0897                 1.0897                 1.0955
 Frc consts  --     6.5909                 6.5912                 6.7209
 IR Inten    --    21.6099                 0.0010                 5.0740

                   100                    101                    102
                     A                      A                      A
 Frequencies --  3226.8886              3584.4661              3586.3211
 Red. masses --     1.0955                 1.0811                 1.0816
 Frc consts  --     6.7210                 8.1839                 8.1965
 IR Inten    --     0.7329               436.0743                 0.0067

 - Thermochemistry -
 -------------------
 Temperature   298.150 Kelvin.  Pressure   1.00000 Atm.
 Atom     1 has atomic number  7 and mass  14.00307

 Molecular mass:   404.01502 amu.
 Principal axes and moments of inertia in atomic units:
                           1         2         3
     Eigenvalues --  4034.58682********************
           X            0.99994  -0.01096   0.00001
           Y            0.01096   0.99994   0.00001
           Z           -0.00001  -0.00001   1.00000
 This molecule is an asymmetric top.
 Rotational symmetry number  1.
 Warning -- assumption of classical behavior for rotation
           may cause significant error
 Rotational temperatures (Kelvin)      0.02147     0.00333     0.00288
 Rotational constants (GHZ):           0.44732     0.06941     0.06009
 Zero-point vibrational energy     629328.0 (Joules/Mol)
                                  150.41300 (Kcal/Mol)
 Warning -- explicit consideration of  33 degrees of freedom as
           vibrations may cause significant error
 Vibrational temperatures:     29.41    52.77    73.14    85.70   115.43
          (Kelvin)            173.64   175.34   218.37   235.71   258.36
                              278.33   281.96   305.73   339.08   382.63
                              383.42   386.55   449.31   527.66   556.35
                              613.54   661.17   666.53   671.17   712.77
                              761.57   788.87   791.49   797.01   802.56
                              853.62   857.50   863.30   912.10   918.29
                              924.55   985.45   998.41  1002.08  1016.52
                             1044.09  1061.72  1082.44  1094.94  1102.32
                             1135.56  1152.05  1174.58  1178.48  1189.35
                             1197.00  1204.82  1218.50  1252.03  1293.40
                             1315.01  1388.44  1388.81  1404.68  1457.44
                             1463.01  1463.78  1539.55  1544.55  1602.99
                             1650.92  1668.29  1721.92  1740.49  1779.03
                             1864.43  1903.68  1904.70  1925.62  1929.44
                             1969.59  1972.98  1977.11  1986.09  2001.66
                             2046.12  2062.48  2103.62  2111.20  2205.38
                             2206.70  2251.75  2252.81  2273.74  2331.01
                             2352.74  2354.49  2498.32  2516.33  4569.24
                             4570.07  4609.86  4609.95  4642.75  4642.77
                             5157.24  5159.91

 Zero-point correction=                           0.239698 (Hartree/Particle)
 Thermal correction to Energy=                    0.259958
 Thermal correction to Enthalpy=                  0.260902
 Thermal correction to Gibbs Free Energy=         0.189379
 Sum of electronic and zero-point Energies=          -1965.885014
 Sum of electronic and thermal Energies=             -1965.864754
 Sum of electronic and thermal Enthalpies=           -1965.863810
 Sum of electronic and thermal Free Energies=        -1965.935333

                     E (Thermal)             CV                S
                      KCal/Mol        Cal/Mol-Kelvin    Cal/Mol-Kelvin
 Total                  163.126             80.818            150.533
 Electronic               0.000              0.000              0.000
 Translational            0.889              2.981             43.880
 Rotational               0.889              2.981             36.397
 Vibrational            161.349             74.857             70.256
 Vibration     1          0.593              1.986              6.591
 Vibration     2          0.594              1.982              5.431
 Vibration     3          0.595              1.977              4.785
 Vibration     4          0.597              1.974              4.472
 Vibration     5          0.600              1.963              3.885
 Vibration     6          0.609              1.932              3.089
 Vibration     7          0.609              1.931              3.071
 Vibration     8          0.619              1.901              2.650
 Vibration     9          0.623              1.887              2.505
 Vibration    10          0.629              1.867              2.333
 Vibration    11          0.635              1.849              2.195
 Vibration    12          0.636              1.845              2.171
 Vibration    13          0.644              1.822              2.022
 Vibration    14          0.655              1.786              1.835
 Vibration    15          0.672              1.736              1.622
 Vibration    16          0.672              1.735              1.619
 Vibration    17          0.673              1.731              1.605
 Vibration    18          0.701              1.650              1.350
 Vibration    19          0.740              1.541              1.093
 Vibration    20          0.755              1.499              1.013
 Vibration    21          0.788              1.413              0.870
 Vibration    22          0.817              1.340              0.767
 Vibration    23          0.821              1.332              0.757
 Vibration    24          0.824              1.324              0.747
 Vibration    25          0.851              1.260              0.670
 Vibration    26          0.884              1.185              0.589
 Vibration    27          0.904              1.143              0.548
 Vibration    28          0.905              1.139              0.544
 Vibration    29          0.909              1.131              0.536
 Vibration    30          0.913              1.123              0.528
 Vibration    31          0.951              1.046              0.461
 Vibration    32          0.954              1.040              0.457
 Vibration    33          0.958              1.032              0.450

 Optimization completed.
    -- Stationary point found.
 Normal termination of Gaussian 09 at Tue Sep  5 22:23:18 2023.
