 Gaussian 09, Revision A.02,
 Gaussian 09:  EM64L-G09RevA.02 11-Jun-2009

 -----------------------------------------------------------
 # opt=tight freq b3lyp/6-31+g(d,p) nosymm geom=connectivity
 -----------------------------------------------------------

 -------
 Energy:
 -------
 Symbolic Z-matrix:
 Charge =  0 Multiplicity = 1

 SCF Done:  E(RB3LYP) =  -1966.10538650     A.U. after   17 cycles
 SCF Done:  E(RB3LYP) =  -1966.10728269     A.U. after   14 cycles
 SCF Done:  E(RB3LYP) =  -1966.10760531     A.U. after   14 cycles
 SCF Done:  E(RB3LYP) =  -1966.10782507     A.U. after   12 cycles
 SCF Done:  E(RB3LYP) =  -1966.10796501     A.U. after   13 cycles
 SCF Done:  E(RB3LYP) =  -1966.10801286     A.U. after   12 cycles
 SCF Done:  E(RB3LYP) =  -1966.10803406     A.U. after   11 cycles
 SCF Done:  E(RB3LYP) =  -1966.10804473     A.U. after   11 cycles
 SCF Done:  E(RB3LYP) =  -1966.10805058     A.U. after   11 cycles
 SCF Done:  E(RB3LYP) =  -1966.10805342     A.U. after   10 cycles
 SCF Done:  E(RB3LYP) =  -1966.10805476     A.U. after    9 cycles
 SCF Done:  E(RB3LYP) =  -1966.10805525     A.U. after    9 cycles
 SCF Done:  E(RB3LYP) =  -1966.10805531     A.U. after    8 cycles
 SCF Done:  E(RB3LYP) =  -1966.10805531     A.U. after    7 cycles
 SCF Done:  E(RB3LYP) =  -1966.10805532     A.U. after    7 cycles
 SCF Done:  E(RB3LYP) =  -1966.10805532     A.U. after    6 cycles
 SCF Done:  E(RB3LYP) =  -1966.10805532     A.U. after    5 cycles
 SCF Done:  E(RB3LYP) =  -1966.10805532     A.U. after    5 cycles
 Optimization completed.
    -- Stationary point found.
 Normal termination of Gaussian 09 at Wed Sep  6 03:11:52 2023.

 ----------------------------------------------------------------------
 #N Geom=AllCheck Guess=TCheck SCRF=Check GenChk RB3LYP/6-31+G(d,p) Fre
 q
 ----------------------------------------------------------------------

 Energy:
 -------
 Redundant internal coordinates taken from checkpoint file:
 /home/nathalia.rosa/DPP-SUB/DPP-SUB-10/DPP-SUB-10-OPT-FREQ.chk
 Charge =  0 Multiplicity = 1

                          Input orientation:
 ---------------------------------------------------------------------
 Center     Atomic      Atomic             Coordinates (Angstroms)
 Number     Number       Type             X           Y           Z
 ---------------------------------------------------------------------
      1          7           0        0.618217   -1.418779    2.367732
      2          6           0        1.071224   -0.076991    2.404075
      3          6           0        0.042744   -1.756612    1.147267
      4          6           0        0.106086   -0.623918    0.341882
      5          6           0        0.727870    0.420657    1.077243
      6          6           0        0.791208    1.553352    0.271859
      7          6           0       -0.237270   -0.126270   -0.984950
      8          7           0        0.215740    1.215517   -0.948609
      9          8           0        1.613144    0.453480    3.368905
     10          8           0       -0.779195   -0.656740   -1.949777
     11          1           0        0.136201    1.871049   -1.718717
     12          1           0        0.697733   -2.074303    3.137849
     13          6           0        1.328922    3.955883   -0.372220
     14          6           0        1.931169    5.135391    0.201839
     15          6           0        1.564563    6.261457   -1.724646
     16          1           0        1.633363    7.169489   -2.320302
     17          6           0        0.964977    5.090473   -2.298876
     18          1           0        0.588167    5.125054   -3.318706
     19          6           0        1.310428    2.861311    0.514413
     20          6           0        2.359682    4.925367    1.506794
     21          1           0        2.841025    5.637958    2.161914
     22         16           0        2.039157    3.327405    2.029698
     23          7           0        0.842917    3.953708   -1.647004
     24          7           0        2.042736    6.302097   -0.502675
     25          6           0       -1.097255   -5.338639    1.217301
     26          6           0       -0.495002   -4.159134    1.791359
     27          6           0       -0.131101   -5.293712    3.718031
     28          1           0        0.245690   -5.328287    4.737867
     29          6           0       -0.730689   -6.464694    3.143801
     30          1           0       -0.799506   -7.372721    3.739461
     31          6           0       -1.525752   -5.128619   -0.087661
     32          1           0       -2.007094   -5.841210   -0.742781
     33          6           0       -0.476485   -3.064569    0.904717
     34         16           0       -1.205201   -3.530666   -0.610572
     35          7           0       -1.208845   -6.505338    1.921823
     36          7           0       -0.009019   -4.156953    3.066150
 ---------------------------------------------------------------------

 SCF Done:  E(RB3LYP) =  -1966.10805532     A.U. after    1 cycles

 Alpha  occ. eigenvalues --  -88.95722 -88.95722 -19.13860 -19.13860 -14.38677
 Alpha  occ. eigenvalues --  -14.38677 -14.38537 -14.38537 -14.37914 -14.37914
 Alpha  occ. eigenvalues --  -10.30723 -10.30723 -10.27978 -10.27977 -10.26504
 Alpha  occ. eigenvalues --  -10.26504 -10.26409 -10.26409 -10.26162 -10.26162
 Alpha  occ. eigenvalues --  -10.26107 -10.26107 -10.25929 -10.25929 -10.24951
 Alpha  occ. eigenvalues --  -10.24951 -10.20424 -10.20377  -8.01458  -8.01458
 Alpha  occ. eigenvalues --   -5.97857  -5.97856  -5.97461  -5.97461  -5.97264
 Alpha  occ. eigenvalues --   -5.97264  -1.05324  -1.04780  -1.01161  -1.01161
 Alpha  occ. eigenvalues --   -0.98345  -0.96994  -0.94220  -0.94167  -0.90914
 Alpha  occ. eigenvalues --   -0.90864  -0.81763  -0.79697  -0.78748  -0.78524
 Alpha  occ. eigenvalues --   -0.78410  -0.72870  -0.70036  -0.69377  -0.69361
 Alpha  occ. eigenvalues --   -0.68200  -0.64546  -0.64452  -0.62739  -0.60034
 Alpha  occ. eigenvalues --   -0.57354  -0.56496  -0.56212  -0.54698  -0.54221
 Alpha  occ. eigenvalues --   -0.52836  -0.51693  -0.51590  -0.49435  -0.47917
 Alpha  occ. eigenvalues --   -0.47835  -0.47543  -0.46719  -0.45901  -0.45853
 Alpha  occ. eigenvalues --   -0.45157  -0.45054  -0.43673  -0.43577  -0.43001
 Alpha  occ. eigenvalues --   -0.42937  -0.42396  -0.40031  -0.39771  -0.39010
 Alpha  occ. eigenvalues --   -0.37944  -0.37811  -0.37442  -0.37268  -0.34822
 Alpha  occ. eigenvalues --   -0.34606  -0.34574  -0.34439  -0.28772  -0.28702
 Alpha  occ. eigenvalues --   -0.28446  -0.27893  -0.27586  -0.27200  -0.26605
 Alpha  occ. eigenvalues --   -0.26420  -0.26088  -0.19874
 Alpha virt. eigenvalues --   -0.12899  -0.11098  -0.08407  -0.04067  -0.02282
 Alpha virt. eigenvalues --   -0.02234  -0.00589  -0.00517  -0.00373  -0.00235
 Alpha virt. eigenvalues --   -0.00219   0.00822   0.01318   0.01927   0.02064

 Mulliken atomic charges:
              1
     1  N   -0.444157
     2  C    0.791623
     3  C    0.473911
     4  C   -0.422609
     5  C   -0.422606
     6  C    0.473911
     7  C    0.791625
     8  N   -0.444158
     9  O   -0.529662
    10  O   -0.529662
    11  H    0.344338
    12  H    0.344338
    13  C   -0.061801
    14  C    0.089918
    15  C   -0.063695
    16  H    0.137797
    17  C    0.219907
    18  H    0.139044
    19  C   -0.523853
    20  C   -0.222484
    21  H    0.181434
    22  S    0.304115
    23  N   -0.192509
    24  N   -0.221319
    25  C    0.089918
    26  C   -0.061800
    27  C    0.219907
    28  H    0.139044
    29  C   -0.063695
    30  H    0.137797
    31  C   -0.222482
    32  H    0.181434
    33  C   -0.523853
    34  S    0.304115
    35  N   -0.221320
    36  N   -0.192510
 Sum of Mulliken atomic charges =   0.00000

 Dipole moment (field-independent basis, Debye):
    X=              0.0000    Y=              0.0000    Z=              0.0000  Tot=              0.0000
 Quadrupole moment (field-independent basis, Debye-Ang):
   XX=           -175.5897   YY=           -142.2595   ZZ=           -168.0500
   XY=              2.1657   XZ=             -4.7149   YZ=            -21.9193

  Exact polarizability: 197.183 150.810 763.002  35.789-142.283 350.131
 Approx polarizability: 348.490 258.6041307.718 106.869-249.227 717.339

                     1                      2                      3
                     A                      A                      A
 Frequencies --    18.5651                38.3732                49.4525
 Red. masses --     8.2672                 8.3993                 8.3799
 Frc consts  --     0.0017                 0.0073                 0.0121
 IR Inten    --     0.6721                 0.3759                 0.7776

                     4                      5                      6
                     A                      A                      A
 Frequencies --    49.7534                76.8888               106.3616
 Red. masses --     9.5770                 8.7717                 9.1175
 Frc consts  --     0.0140                 0.0306                 0.0608
 IR Inten    --     0.0000                 0.0000                 0.0000

                     7                      8                      9
                     A                      A                      A
 Frequencies --   113.4609               140.3108               153.1120
 Red. masses --    10.8489                10.8809                10.2215
 Frc consts  --     0.0823                 0.1262                 0.1412
 IR Inten    --     3.8180                 0.8453                 0.0000

                    10                     11                     12
                     A                      A                      A
 Frequencies --   170.4497               173.2221               184.1287
 Red. masses --     8.7552                10.7810                 7.2206
 Frc consts  --     0.1499                 0.1906                 0.1442
 IR Inten    --     0.0000                 2.0749                 6.9752

                    13                     14                     15
                     A                      A                      A
 Frequencies --   196.6253               223.0999               243.9174
 Red. masses --     6.9525                 8.6372                13.7097
 Frc consts  --     0.1584                 0.2533                 0.4806
 IR Inten    --     0.0000                 2.7444                 0.0000

                    16                     17                     18
                     A                      A                      A
 Frequencies --   264.0234               270.8116               300.7171
 Red. masses --     6.2803                 5.6861                12.4333
 Frc consts  --     0.2579                 0.2457                 0.6624
 IR Inten    --     0.0000                 1.2822                 7.2956

                    19                     20                     21
                     A                      A                      A
 Frequencies --   355.9474               389.3275               427.2330
 Red. masses --    10.0112                 9.0184                 7.8791
 Frc consts  --     0.7473                 0.8054                 0.8473
 IR Inten    --     9.4018                 0.0000                 0.0000

                    22                     23                     24
                     A                      A                      A
 Frequencies --   432.6734               451.3297               453.9221
 Red. masses --    10.3875                 8.6667                10.8709
 Frc consts  --     1.1457                 1.0401                 1.3197
 IR Inten    --     7.5840                77.0520                 0.0000

                    25                     26                     27
                     A                      A                      A
 Frequencies --   460.0686               487.6654               491.4110
 Red. masses --    10.3151                13.7702                14.5820
 Frc consts  --     1.2864                 1.9295                 2.0747
 IR Inten    --     0.0000                 3.0301                 0.0000

                    28                     29                     30
                     A                      A                      A
 Frequencies --   508.0211               525.8437               567.4992
 Red. masses --     5.0930                 4.2984                 3.7491
 Frc consts  --     0.7744                 0.7003                 0.7114
 IR Inten    --     0.2051                 0.0000                 0.0233

                    31                     32                     33
                     A                      A                      A
 Frequencies --   580.9339               611.5818               618.7142
 Red. masses --     4.2977                 7.6173                 8.7305
 Frc consts  --     0.8546                 1.6787                 1.9691
 IR Inten    --     0.0000                 0.0000                 0.0000

                    34                     35                     36
                     A                      A                      A
 Frequencies --   619.2682               631.2557               641.8094
 Red. masses --     8.7925                 1.8218                 1.4876
 Frc consts  --     1.9866                 0.4277                 0.3610
 IR Inten    --    12.4854                53.2489                 0.0000

                    37                     38                     39
                     A                      A                      A
 Frequencies --   648.6228               661.3676               662.2822
 Red. masses --     8.9429                 1.8686                 8.7791
 Frc consts  --     2.2167                 0.4816                 2.2688
 IR Inten    --    12.4065                88.3200                 0.0000

                    40                     41                     42
                     A                      A                      A
 Frequencies --   686.4554               708.9236               722.3351
 Red. masses --     8.6078                 1.8781                 1.8842
 Frc consts  --     2.3898                 0.5561                 0.5792
 IR Inten    --     0.0000                 0.0000                12.4527

                    43                     44                     45
                     A                      A                      A
 Frequencies --   724.1554               730.9253               737.5455
 Red. masses --     5.3477                 1.7496                 3.5784
 Frc consts  --     1.6523                 0.5507                 1.1469
 IR Inten    --     1.8787                 0.0000                82.0284

                    46                     47                     48
                     A                      A                      A
 Frequencies --   778.3316               780.6095               799.1815
 Red. masses --    10.2103                 9.4667                 8.0162
 Frc consts  --     3.6443                 3.3987                 3.0165
 IR Inten    --    14.1749                 0.0000                 0.5406

                    49                     50                     51
                     A                      A                      A
 Frequencies --   799.7404               836.9779               877.7113
 Red. masses --     8.2660                 8.7169                 1.2181
 Frc consts  --     3.1149                 3.5978                 0.5529
 IR Inten    --     0.0000                 0.0000                 0.1533

                    52                     53                     54
                     A                      A                      A
 Frequencies --   877.7419               882.2812               887.2884
 Red. masses --     1.2178                 4.4927                 3.7706
 Frc consts  --     0.5528                 2.0605                 1.7490
 IR Inten    --    44.2190                94.1900                 0.0000

                    55                     56                     57
                     A                      A                      A
 Frequencies --   908.4455               924.7909               977.0150
 Red. masses --     4.6393                 6.1697                 1.4620
 Frc consts  --     2.2558                 3.1089                 0.8223
 IR Inten    --    44.0063                 0.0000                 0.2080

                    58                     59                     60
                     A                      A                      A
 Frequencies --   977.0220               978.8382               980.9425
 Red. masses --     1.4621                 8.4279                 9.0401
 Frc consts  --     0.8223                 4.7576                 5.1252
 IR Inten    --     0.0004                84.8124                 0.0000

                    61                     62                     63
                     A                      A                      A
 Frequencies --   997.3685              1020.9129              1038.1905
 Red. masses --     5.1152                 4.0288                 2.6677
 Frc consts  --     2.9979                 2.4740                 1.6941
 IR Inten    --    31.6053                 0.0000                 0.0000

                    64                     65                     66
                     A                      A                      A
 Frequencies --  1038.6793              1116.4706              1178.3015
 Red. masses --     2.6707                 6.8625                 2.6542
 Frc consts  --     1.6976                 5.0400                 2.1712
 IR Inten    --    93.4698                40.0034                 0.0015

                    67                     68                     69
                     A                      A                      A
 Frequencies --  1178.4417              1193.3889              1203.5200
 Red. masses --     3.4097                 2.5379                 1.9241
 Frc consts  --     2.7899                 2.1296                 1.6421
 IR Inten    --   101.2796                65.4592                 0.0000

                    70                     71                     72
                     A                      A                      A
 Frequencies --  1224.2723              1291.8340              1320.2931
 Red. masses --     2.6588                 5.2833                 2.2807
 Frc consts  --     2.3480                 5.1948                 2.3424
 IR Inten    --    13.7177                 0.0000               142.6163

                    73                     74                     75
                     A                      A                      A
 Frequencies --  1320.5439              1330.8772              1336.7160
 Red. masses --     2.2841                 5.4219                 4.4244
 Frc consts  --     2.3467                 5.6582                 4.6578
 IR Inten    --     0.0008                 0.0000                32.7321

                    76                     77                     78
                     A                      A                      A
 Frequencies --  1371.8022              1381.1421              1382.6127
 Red. masses --     3.0126                 2.1838                 2.3469
 Frc consts  --     3.3402                 2.4543                 2.6433
 IR Inten    --     0.0000                49.0087                 0.0000

                    79                     80                     81
                     A                      A                      A
 Frequencies --  1401.5952              1403.6674              1424.8573
 Red. masses --     1.7999                 2.1028                 3.6927
 Frc consts  --     2.0833                 2.4411                 4.4171
 IR Inten    --    37.8586                 0.0000               158.7020

                    82                     83                     84
                     A                      A                      A
 Frequencies --  1427.2251              1473.1064              1476.7816
 Red. masses --     5.4280                 7.7914                 8.2710
 Frc consts  --     6.5143                 9.9617                10.6278
 IR Inten    --     0.0001                63.9981                 0.0000

                    85                     86                     87
                     A                      A                      A
 Frequencies --  1529.3227              1533.0704              1547.4409
 Red. masses --     6.7340                 6.6554                 5.9633
 Frc consts  --     9.2794                 9.2162                 8.4133
 IR Inten    --   294.5226                 0.0000                 0.0000

                    88                     89                     90
                     A                      A                      A
 Frequencies --  1547.8836              1580.2492              1600.7939
 Red. masses --     5.6386                 7.2149                 6.2432
 Frc consts  --     7.9598                10.6152                 9.4261
 IR Inten    --    86.6322                 0.0000                12.2783

                    91                     92                     93
                     A                      A                      A
 Frequencies --  1609.3669              1632.9217              1744.3313
 Red. masses --     6.3461                 8.7451                 9.9646
 Frc consts  --     9.6843                13.7387                17.8636
 IR Inten    --     0.0000               533.6952               882.3399

                    94                     95                     96
                     A                      A                      A
 Frequencies --  1754.1613              3169.8312              3169.8542
 Red. masses --    11.2830                 1.0888                 1.0888
 Frc consts  --    20.4557                 6.4455                 6.4456
 IR Inten    --     0.0000                24.9835                 0.0012

                    97                     98                     99
                     A                      A                      A
 Frequencies --  3185.9400              3185.9899              3270.8410
 Red. masses --     1.0945                 1.0945                 1.0939
 Frc consts  --     6.5452                 6.5454                 6.8952
 IR Inten    --    75.6404                 0.0000                35.2082

                   100                    101                    102
                     A                      A                      A
 Frequencies --  3270.9262              3579.4957              3581.0828
 Red. masses --     1.0939                 1.0811                 1.0817
 Frc consts  --     6.8956                 8.1616                 8.1731
 IR Inten    --     0.0001               333.9455                 0.0001

 - Thermochemistry -
 -------------------
 Temperature   298.150 Kelvin.  Pressure   1.00000 Atm.
 Atom     1 has atomic number  7 and mass  14.00307

 Molecular mass:   404.01502 amu.
 Principal axes and moments of inertia in atomic units:
                           1         2         3
     Eigenvalues --  3892.78130********************
           X            0.23941   0.37917   0.89382
           Y            0.95268   0.08586  -0.29160
           Z           -0.18731   0.92134  -0.34067
 This molecule is an asymmetric top.
 Rotational symmetry number  1.
 Warning -- assumption of classical behavior for rotation
           may cause significant error
 Rotational temperatures (Kelvin)      0.02225     0.00355     0.00306
 Rotational constants (GHZ):           0.46361     0.07388     0.06372
 Zero-point vibrational energy     625667.3 (Joules/Mol)
                                  149.53808 (Kcal/Mol)
 Warning -- explicit consideration of  34 degrees of freedom as
           vibrations may cause significant error
 Vibrational temperatures:     26.71    55.21    71.15    71.58   110.63
          (Kelvin)            153.03   163.24   201.88   220.29   245.24
                              249.23   264.92   282.90   320.99   350.94
                              379.87   389.64   432.66   512.13   560.15
                              614.69   622.52   649.36   653.09   661.94
                              701.64   707.03   730.93   756.57   816.50
                              835.83   879.93   890.19   890.99   908.23
                              923.42   933.22   951.56   952.88   987.66
                             1019.98  1039.28  1041.90  1051.64  1061.16
                             1119.84  1123.12  1149.84  1150.65  1204.22
                             1262.83  1262.87  1269.40  1276.61  1307.05
                             1330.57  1405.70  1405.72  1408.33  1411.36
                             1434.99  1468.86  1493.72  1494.43  1606.35
                             1695.31  1695.51  1717.02  1731.59  1761.45
                             1858.66  1899.60  1899.97  1914.83  1923.23
                             1973.71  1987.15  1989.27  2016.58  2019.56
                             2050.05  2053.46  2119.47  2124.76  2200.35
                             2205.74  2226.42  2227.06  2273.62  2303.18
                             2315.52  2349.41  2509.70  2523.84  4560.67
                             4560.71  4583.85  4583.92  4706.00  4706.13
                             5150.09  5152.37

 Zero-point correction=                           0.238304 (Hartree/Particle)
 Thermal correction to Energy=                    0.259104
 Thermal correction to Enthalpy=                  0.260048
 Thermal correction to Gibbs Free Energy=         0.187158
 Sum of electronic and zero-point Energies=          -1965.869751
 Sum of electronic and thermal Energies=             -1965.848951
 Sum of electronic and thermal Enthalpies=           -1965.848007
 Sum of electronic and thermal Free Energies=        -1965.920898

                     E (Thermal)             CV                S
                      KCal/Mol        Cal/Mol-Kelvin    Cal/Mol-Kelvin
 Total                  162.590             81.968            153.411
 Electronic               0.000              0.000              0.000
 Translational            0.889              2.981             43.880
 Rotational               0.889              2.981             36.242
 Vibrational            160.813             76.007             73.289
 Vibration     1          0.593              1.986              6.782
 Vibration     2          0.594              1.982              5.341
 Vibration     3          0.595              1.978              4.839
 Vibration     4          0.595              1.978              4.827
 Vibration     5          0.599              1.965              3.969
 Vibration     6          0.605              1.944              3.334
 Vibration     7          0.607              1.938              3.209
 Vibration     8          0.615              1.913              2.800
 Vibration     9          0.619              1.899              2.633
 Vibration    10          0.626              1.879              2.431
 Vibration    11          0.627              1.875              2.400
 Vibration    12          0.631              1.861              2.286
 Vibration    13          0.636              1.845              2.164
 Vibration    14          0.649              1.806              1.934
 Vibration    15          0.659              1.773              1.774
 Vibration    16          0.671              1.739              1.635
 Vibration    17          0.675              1.727              1.591
 Vibration    18          0.693              1.672              1.413
 Vibration    19          0.731              1.563              1.140
 Vibration    20          0.757              1.493              1.003
 Vibration    21          0.789              1.411              0.868
 Vibration    22          0.794              1.399              0.850
 Vibration    23          0.810              1.358              0.792
 Vibration    24          0.812              1.352              0.784
 Vibration    25          0.818              1.339              0.766
 Vibration    26          0.844              1.277              0.690
 Vibration    27          0.847              1.269              0.680
 Vibration    28          0.863              1.232              0.638
 Vibration    29          0.881              1.193              0.597
 Vibration    30          0.923              1.102              0.509
 Vibration    31          0.938              1.073              0.484
 Vibration    32          0.971              1.007              0.430
 Vibration    33          0.979              0.992              0.419
 Vibration    34          0.979              0.991              0.418

 Normal termination of Gaussian 09 at Wed Sep  6 07:56:00 2023.
