 Gaussian 09, Revision A.02,
 Gaussian 09:  EM64L-G09RevA.02 11-Jun-2009

 ----------------------------------------------------------------
 # td=(nstates=10) cam-b3lyp/6-31+g(d,p) nosymm geom=connectivity
 ----------------------------------------------------------------

 -------
 Energy:
 -------
 Symbolic Z-matrix:
 Charge =  0 Multiplicity = 1

                          Input orientation:
 ---------------------------------------------------------------------
 Center     Atomic      Atomic             Coordinates (Angstroms)
 Number     Number       Type             X           Y           Z
 ---------------------------------------------------------------------
      1          7           0        0.618217   -1.418779    2.367732
      2          6           0        1.071224   -0.076991    2.404075
      3          6           0        0.042744   -1.756612    1.147267
      4          6           0        0.106086   -0.623918    0.341882
      5          6           0        0.727870    0.420657    1.077243
      6          6           0        0.791208    1.553352    0.271859
      7          6           0       -0.237270   -0.126270   -0.984950
      8          7           0        0.215740    1.215517   -0.948609
      9          8           0        1.613144    0.453480    3.368905
     10          8           0       -0.779195   -0.656740   -1.949777
     11          1           0        0.136201    1.871049   -1.718717
     12          1           0        0.697733   -2.074303    3.137849
     13          6           0        1.328922    3.955883   -0.372220
     14          6           0        1.931169    5.135391    0.201839
     15          6           0        1.564563    6.261457   -1.724646
     16          1           0        1.633363    7.169489   -2.320302
     17          6           0        0.964977    5.090473   -2.298876
     18          1           0        0.588167    5.125054   -3.318706
     19          6           0        1.310428    2.861311    0.514413
     20          6           0        2.359682    4.925367    1.506794
     21          1           0        2.841025    5.637958    2.161914
     22         16           0        2.039157    3.327405    2.029698
     23          7           0        0.842917    3.953708   -1.647004
     24          7           0        2.042736    6.302097   -0.502675
     25          6           0       -1.097255   -5.338639    1.217301
     26          6           0       -0.495002   -4.159134    1.791359
     27          6           0       -0.131101   -5.293712    3.718031
     28          1           0        0.245690   -5.328287    4.737867
     29          6           0       -0.730689   -6.464694    3.143801
     30          1           0       -0.799506   -7.372721    3.739461
     31          6           0       -1.525752   -5.128619   -0.087661
     32          1           0       -2.007094   -5.841210   -0.742781
     33          6           0       -0.476485   -3.064569    0.904717
     34         16           0       -1.205201   -3.530666   -0.610572
     35          7           0       -1.208845   -6.505338    1.921823
     36          7           0       -0.009019   -4.156953    3.066150
 ---------------------------------------------------------------------

 SCF Done:  E(RCAM-B3LYP) =  -1965.52092267     A.U. after   16 cycles

 Excitation energies and oscillator strengths:

 Excited state symmetry could not be determined.
 Excited State   1:      Singlet-?Sym    2.1367 eV  580.25 nm  f=0.6932  <S**2>=0.000
     102 ->105         0.10172
     103 ->104         0.70047
 This state for optimization and/or second-order correction.
 Copying the excited state density for this state as the 1-particle RhoCI density.

 Excited state symmetry could not be determined.
 Excited State   2:      Singlet-?Sym    2.6662 eV  465.03 nm  f=0.0000  <S**2>=0.000
     102 ->106         0.11034
     103 ->105         0.69162

 Excited state symmetry could not be determined.
 Excited State   3:      Singlet-?Sym    3.3391 eV  371.31 nm  f=0.1026  <S**2>=0.000
     102 ->105         0.15388
     103 ->106         0.67374

 Excited state symmetry could not be determined.
 Excited State   4:      Singlet-?Sym    3.5493 eV  349.32 nm  f=0.0044  <S**2>=0.000
      94 ->105        -0.21205
      95 ->104         0.40705
      95 ->106         0.23474
      96 ->105        -0.39161
     100 ->104         0.25040

 Excited state symmetry could not be determined.
 Excited State   5:      Singlet-?Sym    3.5541 eV  348.85 nm  f=0.0000  <S**2>=0.000
      94 ->104        -0.18240
      94 ->106        -0.11986
      95 ->105         0.43150
      96 ->104        -0.42965
      96 ->106        -0.20866
     100 ->105         0.14347

 Excited state symmetry could not be determined.
 Excited State   6:      Singlet-?Sym    3.6822 eV  336.72 nm  f=0.0000  <S**2>=0.000
      99 ->104         0.45679
      99 ->106        -0.20176
     101 ->105         0.13838
     102 ->104         0.44004

 Excited state symmetry could not be determined.
 Excited State   7:      Singlet-?Sym    3.7609 eV  329.66 nm  f=0.0005  <S**2>=0.000
      95 ->104        -0.21568
      96 ->105         0.14904
     100 ->104         0.56993
     100 ->106        -0.26993

 Excited state symmetry could not be determined.
 Excited State   8:      Singlet-?Sym    3.8359 eV  323.22 nm  f=0.0000  <S**2>=0.000
      97 ->104         0.12544
      99 ->104        -0.42193
      99 ->106         0.12502
     101 ->105         0.28041
     102 ->104         0.43037

 Excited state symmetry could not be determined.
 Excited State   9:      Singlet-?Sym    3.8458 eV  322.39 nm  f=0.1970  <S**2>=0.000
     101 ->104         0.61489
     102 ->105         0.29182
     103 ->106        -0.10838

 Excited state symmetry could not be determined.
 Excited State  10:      Singlet-?Sym    4.1515 eV  298.65 nm  f=0.0000  <S**2>=0.000
      94 ->104         0.48389
      94 ->106        -0.18911
      96 ->104        -0.30483
      96 ->106         0.17015
     100 ->105        -0.23922
     100 ->107        -0.13492

 Alpha  occ. eigenvalues --  -89.03041 -89.03041 -19.20934 -19.20934 -14.46031
 Alpha  occ. eigenvalues --  -14.46031 -14.45768 -14.45768 -14.45475 -14.45475
 Alpha  occ. eigenvalues --  -10.38353 -10.38353 -10.35553 -10.35552 -10.34171
 Alpha  occ. eigenvalues --  -10.34171 -10.33773 -10.33773 -10.33706 -10.33705
 Alpha  occ. eigenvalues --  -10.33438 -10.33438 -10.33225 -10.33225 -10.32434
 Alpha  occ. eigenvalues --  -10.32434 -10.27393 -10.27346  -8.08819  -8.08819
 Alpha  occ. eigenvalues --   -6.05319  -6.05319  -6.04902  -6.04902  -6.04716
 Alpha  occ. eigenvalues --   -6.04716  -1.13361  -1.12736  -1.09592  -1.09586
 Alpha  occ. eigenvalues --   -1.06375  -1.05048  -1.02363  -1.02300  -0.99207
 Alpha  occ. eigenvalues --   -0.99140  -0.89593  -0.87675  -0.86720  -0.86541
 Alpha  occ. eigenvalues --   -0.86401  -0.80547  -0.77594  -0.77002  -0.76985
 Alpha  occ. eigenvalues --   -0.75568  -0.71901  -0.71823  -0.70150  -0.67266
 Alpha  occ. eigenvalues --   -0.64429  -0.63617  -0.63283  -0.61568  -0.61095
 Alpha  occ. eigenvalues --   -0.59804  -0.58604  -0.58487  -0.56213  -0.55144
 Alpha  occ. eigenvalues --   -0.54611  -0.54181  -0.53962  -0.53000  -0.52407
 Alpha  occ. eigenvalues --   -0.51685  -0.51491  -0.50287  -0.50088  -0.49809
 Alpha  occ. eigenvalues --   -0.49297  -0.48609  -0.46419  -0.46260  -0.45507
 Alpha  occ. eigenvalues --   -0.43998  -0.43819  -0.43749  -0.43520  -0.41380
 Alpha  occ. eigenvalues --   -0.41333  -0.40855  -0.40577  -0.34772  -0.34142
 Alpha  occ. eigenvalues --   -0.33795  -0.33767  -0.33648  -0.32788  -0.32739
 Alpha  occ. eigenvalues --   -0.31614  -0.30901  -0.23742
 Alpha virt. eigenvalues --   -0.09431  -0.07063  -0.03969   0.00828   0.02160
 Alpha virt. eigenvalues --    0.02315   0.02495   0.02552   0.03215   0.03255
 Alpha virt. eigenvalues --    0.03674   0.04514   0.04684   0.04729   0.04780

 Mulliken atomic charges:
              1
     1  N   -0.465996
     2  C    0.789274
     3  C    0.460056
     4  C   -0.402825
     5  C   -0.402820
     6  C    0.460058
     7  C    0.789276
     8  N   -0.465996
     9  O   -0.544401
    10  O   -0.544401
    11  H    0.350609
    12  H    0.350609
    13  C   -0.075362
    14  C    0.104419
    15  C   -0.070656
    16  H    0.147246
    17  C    0.215246
    18  H    0.149189
    19  C   -0.540434
    20  C   -0.248428
    21  H    0.190092
    22  S    0.375225
    23  N   -0.203410
    24  N   -0.229848
    25  C    0.104419
    26  C   -0.075361
    27  C    0.215246
    28  H    0.149189
    29  C   -0.070657
    30  H    0.147246
    31  C   -0.248426
    32  H    0.190092
    33  C   -0.540435
    34  S    0.375226
    35  N   -0.229848
    36  N   -0.203412
 Sum of Mulliken atomic charges =   0.00000

 Dipole moment (field-independent basis, Debye):
    X=              0.0000    Y=              0.0000    Z=              0.0000  Tot=              0.0001
 Quadrupole moment (field-independent basis, Debye-Ang):
   XX=           -176.1435   YY=           -139.2760   ZZ=           -167.5387
   XY=              2.6178   XZ=             -4.9033   YZ=            -23.8259

 Normal termination of Gaussian 09 at Wed Sep  6 18:42:16 2023.
