 Gaussian 16, Revision A.03,
 Gaussian 16:  ES64L-G16RevA.03 25-Dec-2016

 ----------------------------------------------
 # opt freq b3lyp/6-31+g(d,p) geom=connectivity
 ----------------------------------------------

 -------
 Energy:
 -------
 Symbolic Z-matrix:
 Charge = -1 Multiplicity = 2

 SCF Done:  E(UB3LYP) =  -1936.44384200     A.U. after   34 cycles
 SCF Done:  E(UB3LYP) =  -1936.44386687     A.U. after   23 cycles
 SCF Done:  E(UB3LYP) =  -1936.44399932     A.U. after   23 cycles
 SCF Done:  E(UB3LYP) =  -1936.44402277     A.U. after   22 cycles
 SCF Done:  E(UB3LYP) =  -1936.44403933     A.U. after   20 cycles
 SCF Done:  E(UB3LYP) =  -1936.44404975     A.U. after   23 cycles
 SCF Done:  E(UB3LYP) =  -1936.44405474     A.U. after   20 cycles
 SCF Done:  E(UB3LYP) =  -1936.44405624     A.U. after   19 cycles
 SCF Done:  E(UB3LYP) =  -1936.44405686     A.U. after   18 cycles
 SCF Done:  E(UB3LYP) =  -1936.44405727     A.U. after   18 cycles
 SCF Done:  E(UB3LYP) =  -1936.44405737     A.U. after   17 cycles
 SCF Done:  E(UB3LYP) =  -1936.44405734     A.U. after   15 cycles
 Optimization completed.
    -- Stationary point found.
 Normal termination of Gaussian 16 at Mon Feb  5 19:26:57 2024.

 ----------------------------------------------------------------------
 #N Geom=AllCheck Guess=TCheck SCRF=Check GenChk UB3LYP/6-31+G(d,p) Fre
 q
 ----------------------------------------------------------------------

 Structure from the checkpoint file:  "DPP-SUB-7"
 -------
 Energy:
 -------
 Charge = -1 Multiplicity = 2

                         Standard orientation:
 ---------------------------------------------------------------------
 Center     Atomic      Atomic             Coordinates (Angstroms)
 Number     Number       Type             X           Y           Z
 ---------------------------------------------------------------------
      1          7           0       -1.710088   -1.265660   -0.642086
      2          6           0       -0.377809   -1.721161   -0.568645
      3          6           0       -1.820615    0.114991   -0.714935
      4          6           0       -0.531003    0.623304   -0.664259
      5          6           0        0.395168   -0.485596   -0.559115
      6          6           0        1.684781    0.025600   -0.542625
      7          6           0        0.239032    1.854899   -0.734759
      8          7           0        1.573936    1.402488   -0.673781
      9          8           0       -0.071766   -2.924468   -0.552174
     10          8           0       -0.071830    3.054458   -0.824022
     11          1           0        2.383306    2.012170   -0.615579
     12          1           0       -2.510927   -1.879036   -0.743696
     13          6           0        4.226777    0.116167   -0.063038
     14          6           0        5.331913   -0.614846    0.535523
     15          6           0        5.266882   -1.954685    0.802042
     16          1           0        6.095923   -2.470222    1.277148
     17          6           0        4.058944   -2.684231    0.484107
     18          1           0        4.007191   -3.734911    0.758602
     19          6           0        2.995262   -2.104797   -0.117985
     20          1           0        2.087070   -2.665225   -0.323484
     21          6           0        3.028498   -0.667700   -0.591273
     22          7           0        4.337017    1.404320   -0.204078
     23          6           0       -5.130636    0.447260    0.784985
     24          6           0       -4.308062   -0.053691   -0.297515
     25          6           0       -3.172148    0.800866   -0.856601
     26          6           0       -3.090243    2.167699   -0.203843
     27          1           0       -2.286068    2.814623   -0.542280
     28          6           0       -3.918890    2.550922    0.796405
     29          1           0       -3.787671    3.532151    1.246288
     30          6           0       -4.965656    1.699706    1.312147
     31          1           0       -5.602686    2.057315    2.115397
     32          7           0       -4.569388   -1.231579   -0.793227
     33          6           0       -5.659103   -1.898968   -0.129494
     34          1           0       -5.322497   -2.831348    0.340339
     35          1           0       -6.459354   -2.139798   -0.838970
     36          6           0        5.590248    1.930644    0.266641
     37          1           0        6.132750    2.434903   -0.541888
     38          1           0        5.428926    2.650579    1.077094
     39         16           0       -6.356299   -0.767317    1.205745
     40         16           0        6.646015    0.514426    0.918370
     41          1           0       -3.375546    0.918284   -1.940592
     42          1           0        3.242507   -0.738424   -1.679029
 ---------------------------------------------------------------------

 SCF Done:  E(UB3LYP) =  -1936.44405734     A.U. after    2 cycles

 The electronic state is 2-A.
 Alpha  occ. eigenvalues --  -88.80605 -88.79678 -19.01401 -19.00970 -14.26563
 Alpha  occ. eigenvalues --  -14.26338 -14.25082 -14.24048 -10.18195 -10.17672
 Alpha  occ. eigenvalues --  -10.16884 -10.16189 -10.16020 -10.14968 -10.14497
 Alpha  occ. eigenvalues --  -10.14417 -10.13901 -10.13700 -10.12850 -10.12646
 Alpha  occ. eigenvalues --  -10.11298 -10.10357 -10.10319 -10.09770 -10.09439
 Alpha  occ. eigenvalues --  -10.08864 -10.07640 -10.07398  -7.86612  -7.85686
 Alpha  occ. eigenvalues --   -5.83077  -5.82777  -5.82151  -5.82146  -5.81852
 Alpha  occ. eigenvalues --   -5.81222  -0.92520  -0.91816  -0.86829  -0.86061
 Alpha  occ. eigenvalues --   -0.85055  -0.83996  -0.75456  -0.74414  -0.71348
 Alpha  occ. eigenvalues --   -0.70402  -0.68709  -0.66137  -0.65447  -0.65003
 Alpha  occ. eigenvalues --   -0.64389  -0.60174  -0.57714  -0.55794  -0.55462
 Alpha  occ. eigenvalues --   -0.54199  -0.51204  -0.49950  -0.49113  -0.48268
 Alpha  occ. eigenvalues --   -0.45348  -0.42405  -0.41485  -0.40700  -0.39835
 Alpha  occ. eigenvalues --   -0.39213  -0.38782  -0.38452  -0.38337  -0.37722
 Alpha  occ. eigenvalues --   -0.37279  -0.36642  -0.35905  -0.35690  -0.34742
 Alpha  occ. eigenvalues --   -0.33151  -0.32696  -0.31803  -0.31638  -0.30765
 Alpha  occ. eigenvalues --   -0.30275  -0.30036  -0.29944  -0.29091  -0.27873
 Alpha  occ. eigenvalues --   -0.26780  -0.26492  -0.26013  -0.25474  -0.24764
 Alpha  occ. eigenvalues --   -0.23769  -0.22167  -0.21787  -0.21480  -0.21242
 Alpha  occ. eigenvalues --   -0.19183  -0.18628  -0.18176  -0.17849  -0.15892
 Alpha  occ. eigenvalues --   -0.14446  -0.14341  -0.11216  -0.10346  -0.09412
 Alpha  occ. eigenvalues --   -0.00987
 Alpha virt. eigenvalues --    0.00961   0.02355   0.06772   0.07454   0.07832
 Alpha virt. eigenvalues --    0.08421   0.09240   0.09706   0.10081   0.10197
 Alpha virt. eigenvalues --    0.10338   0.10530   0.10882   0.11469   0.11736

  Beta  occ. eigenvalues --  -88.80605 -88.79675 -19.01303 -19.00835 -14.26583
  Beta  occ. eigenvalues --  -14.26361 -14.24942 -14.23871 -10.18135 -10.17587
  Beta  occ. eigenvalues --  -10.16892 -10.16124 -10.16030 -10.14895 -10.14226
  Beta  occ. eigenvalues --  -10.14192 -10.13880 -10.13727 -10.12816 -10.12689
  Beta  occ. eigenvalues --  -10.11180 -10.10392 -10.10200 -10.09654 -10.09464
  Beta  occ. eigenvalues --  -10.08746 -10.07685 -10.07425  -7.86611  -7.85684
  Beta  occ. eigenvalues --   -5.83077  -5.82778  -5.82150  -5.82142  -5.81851
  Beta  occ. eigenvalues --   -5.81212  -0.92349  -0.91597  -0.86616  -0.85842
  Beta  occ. eigenvalues --   -0.84850  -0.83825  -0.75278  -0.74204  -0.71241
  Beta  occ. eigenvalues --   -0.70271  -0.68699  -0.65968  -0.65317  -0.64827
  Beta  occ. eigenvalues --   -0.64251  -0.59890  -0.57424  -0.55692  -0.55364
  Beta  occ. eigenvalues --   -0.54043  -0.51036  -0.49719  -0.48964  -0.48101
  Beta  occ. eigenvalues --   -0.45233  -0.42329  -0.41390  -0.40542  -0.39668
  Beta  occ. eigenvalues --   -0.39042  -0.38568  -0.38325  -0.38163  -0.37550
  Beta  occ. eigenvalues --   -0.37150  -0.36443  -0.35708  -0.35537  -0.34543
  Beta  occ. eigenvalues --   -0.33043  -0.32406  -0.31664  -0.31496  -0.30679
  Beta  occ. eigenvalues --   -0.29982  -0.29893  -0.29784  -0.29023  -0.27704
  Beta  occ. eigenvalues --   -0.26647  -0.26109  -0.25810  -0.25170  -0.24658
  Beta  occ. eigenvalues --   -0.23664  -0.21608  -0.21235  -0.20796  -0.20560
  Beta  occ. eigenvalues --   -0.19017  -0.18413  -0.17974  -0.17544  -0.15794
  Beta  occ. eigenvalues --   -0.14537  -0.14235  -0.10700  -0.09745  -0.08560
  Beta virt. eigenvalues --    0.02362   0.02913   0.03979   0.06787   0.07465
  Beta virt. eigenvalues --    0.07838   0.08413   0.09516   0.09948   0.10277
  Beta virt. eigenvalues --    0.10329   0.10668   0.10763   0.10922   0.11547

 Mulliken charges and spin densities:
               1          2
     1  N   -0.331341  -0.013821
     2  C    0.554949   0.037634
     3  C    0.056894   0.136735
     4  C   -0.621454  -0.028337
     5  C   -0.604633  -0.031022
     6  C   -0.032114   0.178045
     7  C    0.550773   0.058323
     8  N   -0.387092  -0.018101
     9  O   -0.592922   0.033201
    10  O   -0.603981   0.050058
    11  H    0.343427  -0.000247
    12  H    0.329560   0.000546
    13  C   -0.890406   0.024542
    14  C    0.520800  -0.010438
    15  C   -0.005199   0.134559
    16  H    0.113750  -0.005486
    17  C    0.149346  -0.034524
    18  H    0.109902   0.001079
    19  C   -0.617109   0.081320
    20  H    0.183983  -0.004682
    21  C    0.449854  -0.001193
    22  N   -0.192373   0.069511
    23  C    0.828055   0.042171
    24  C   -1.148301   0.078839
    25  C    0.093780  -0.131053
    26  C   -0.220295   0.144911
    27  H    0.176540  -0.005146
    28  C   -0.125848  -0.037361
    29  H    0.105869   0.000587
    30  C    0.201772   0.114423
    31  H    0.111226  -0.005532
    32  N   -0.200873   0.078106
    33  C   -0.202018  -0.012039
    34  H    0.164112   0.005763
    35  H    0.160190   0.003959
    36  C   -0.225632  -0.005393
    37  H    0.161100   0.004034
    38  H    0.170380   0.003185
    39  S    0.028611   0.015180
    40  S    0.063475   0.002124
    41  H    0.165210   0.048456
    42  H    0.208034  -0.002916
 Sum of Mulliken charges =  -1.00000   1.00000

 Dipole moment (field-independent basis, Debye):
    X=              1.6848    Y=             -0.2874    Z=              0.2539  Tot=              1.7279
 Quadrupole moment (field-independent basis, Debye-Ang):
   XX=           -252.5673   YY=           -208.6631   ZZ=           -187.2438
   XY=              6.4500   XZ=             -0.0210   YZ=              2.5790

  Exact polarizability:1868.608-137.030 399.398  22.129  -1.096 231.345
 Approx polarizability:4774.150-495.687 842.479  86.538  -2.955 400.159

                      1                      2                      3
                      A                      A                      A
 Frequencies --     15.1453                22.3420                29.4555
 Red. masses --      8.8721                 5.7137                 7.7624
 Frc consts  --      0.0012                 0.0017                 0.0040
 IR Inten    --      0.1479                 1.2027                 1.0250

                      4                      5                      6
                      A                      A                      A
 Frequencies --     36.1947                57.8621                66.9549
 Red. masses --      8.2761                 6.9882                 6.6583
 Frc consts  --      0.0064                 0.0138                 0.0176
 IR Inten    --      1.1044                12.2487                 4.0290

                      7                      8                      9
                      A                      A                      A
 Frequencies --    103.7229               107.4284               117.4328
 Red. masses --      6.0523                 3.9761                 4.5891
 Frc consts  --      0.0384                 0.0270                 0.0373
 IR Inten    --     10.9320                 1.8216                10.4778

                     10                     11                     12
                      A                      A                      A
 Frequencies --    140.2836               158.9617               173.0091
 Red. masses --      8.9463                 5.9595                 5.9682
 Frc consts  --      0.1037                 0.0887                 0.1053
 IR Inten    --      6.2218                 3.1150                 2.8652

                     13                     14                     15
                      A                      A                      A
 Frequencies --    177.2042               209.3286               215.1343
 Red. masses --      6.2108                 4.4069                 9.0040
 Frc consts  --      0.1149                 0.1138                 0.2455
 IR Inten    --      2.8336                 5.6490                 1.2304

                     16                     17                     18
                      A                      A                      A
 Frequencies --    232.1125               242.8962               260.6570
 Red. masses --      5.0136                 6.1945                 6.6341
 Frc consts  --      0.1591                 0.2153                 0.2656
 IR Inten    --      8.1394                 1.0765                 6.7584

                     19                     20                     21
                      A                      A                      A
 Frequencies --    291.0702               324.1455               338.7956
 Red. masses --      5.6592                 7.0603                 7.1209
 Frc consts  --      0.2825                 0.4371                 0.4816
 IR Inten    --      5.7714                 2.3070                 7.6297

                     22                     23                     24
                      A                      A                      A
 Frequencies --    357.7781               364.2694               377.1242
 Red. masses --      7.3645                 7.6228                10.1958
 Frc consts  --      0.5554                 0.5959                 0.8544
 IR Inten    --      3.7282                 4.0681               160.1977

                     25                     26                     27
                      A                      A                      A
 Frequencies --    433.1977               453.1499               471.1287
 Red. masses --      6.7636                 4.9082                 4.3132
 Frc consts  --      0.7478                 0.5938                 0.5641
 IR Inten    --     90.5163                18.8151                16.6693

                     28                     29                     30
                      A                      A                      A
 Frequencies --    487.0955               499.4745               507.5502
 Red. masses --      8.6386                 8.5784                 5.1872
 Frc consts  --      1.2076                 1.2609                 0.7873
 IR Inten    --      2.7518                32.3479                24.1095

                     31                     32                     33
                      A                      A                      A
 Frequencies --    516.2074               530.5991               568.4720
 Red. masses --      5.0082                 5.2976                 5.7891
 Frc consts  --      0.7863                 0.8787                 1.1023
 IR Inten    --     63.3771                 0.8488                66.2376

                     34                     35                     36
                      A                      A                      A
 Frequencies --    580.0634               599.7605               605.2429
 Red. masses --      6.2324                 6.7458                 5.7870
 Frc consts  --      1.2355                 1.4297                 1.2490
 IR Inten    --     20.6545               116.4707               414.6367

                     37                     38                     39
                      A                      A                      A
 Frequencies --    627.7933               634.1825               661.4346
 Red. masses --      3.1937                 3.6021                 1.4317
 Frc consts  --      0.7416                 0.8536                 0.3691
 IR Inten    --     88.9572                43.8317               153.5792

                     40                     41                     42
                      A                      A                      A
 Frequencies --    684.1351               687.1187               692.8998
 Red. masses --      5.2557                 3.6808                 4.2735
 Frc consts  --      1.4493                 1.0239                 1.2089
 IR Inten    --    105.0781               360.7084               828.3493

                     43                     44                     45
                      A                      A                      A
 Frequencies --    703.7193               707.7266               712.5712
 Red. masses --      5.6572                 2.4282                 3.6534
 Frc consts  --      1.6506                 0.7166                 1.0929
 IR Inten    --     82.4330                31.9325                53.8736

                     46                     47                     48
                      A                      A                      A
 Frequencies --    721.5226               726.1506               739.2784
 Red. masses --      3.2555                 1.8583                 1.8715
 Frc consts  --      0.9985                 0.5773                 0.6026
 IR Inten    --    137.6749                50.7587                67.0898

                     49                     50                     51
                      A                      A                      A
 Frequencies --    751.5997               765.2475               786.9357
 Red. masses --      2.7493                 6.5952                 3.7415
 Frc consts  --      0.9150                 2.2755                 1.3651
 IR Inten    --     42.7010                 4.6527               155.1691

                     52                     53                     54
                      A                      A                      A
 Frequencies --    799.8364               833.4898               837.8635
 Red. masses --      3.2287                 2.4017                 3.7040
 Frc consts  --      1.2170                 0.9830                 1.5320
 IR Inten    --     34.3474                61.5268               165.5388

                     55                     56                     57
                      A                      A                      A
 Frequencies --    842.8177               849.3013               879.0937
 Red. masses --      3.3058                 1.7895                 4.7826
 Frc consts  --      1.3836                 0.7605                 2.1776
 IR Inten    --      4.0351                33.9745                58.0456

                     58                     59                     60
                      A                      A                      A
 Frequencies --    929.0828               929.6969               946.0330
 Red. masses --      1.4226                 1.4015                 4.5064
 Frc consts  --      0.7235                 0.7137                 2.3763
 IR Inten    --     49.2690                 0.3035               444.6017

                     61                     62                     63
                      A                      A                      A
 Frequencies --    966.0453               972.3873               984.4792
 Red. masses --      1.8578                 1.7555                 1.7092
 Frc consts  --      1.0215                 0.9780                 0.9760
 IR Inten    --    188.1816               301.4305               102.4995

                     64                     65                     66
                      A                      A                      A
 Frequencies --    992.4226              1015.1026              1028.0953
 Red. masses --      1.6418                 3.5925                 3.4418
 Frc consts  --      0.9527                 2.1811                 2.1434
 IR Inten    --     38.9100              2368.7639               653.2950

                     67                     68                     69
                      A                      A                      A
 Frequencies --   1039.3005              1052.6663              1057.0008
 Red. masses --      3.3903                 3.7220                 3.0634
 Frc consts  --      2.1576                 2.4300                 2.0165
 IR Inten    --   2132.3929               762.6602               144.2775

                     70                     71                     72
                      A                      A                      A
 Frequencies --   1060.7699              1111.4676              1117.4547
 Red. masses --      3.1855                 3.2074                 2.4314
 Frc consts  --      2.1119                 2.3345                 1.7889
 IR Inten    --     33.2344                22.9162              1281.4719

                     73                     74                     75
                      A                      A                      A
 Frequencies --   1161.3795              1163.2119              1166.7103
 Red. masses --      3.3228                 1.9943                 1.2261
 Frc consts  --      2.6406                 1.5899                 0.9833
 IR Inten    --   1143.3619               430.7360                31.4001

                     76                     77                     78
                      A                      A                      A
 Frequencies --   1167.8912              1189.4958              1199.5598
 Red. masses --      1.2717                 1.4646                 1.4374
 Frc consts  --      1.0220                 1.2209                 1.2186
 IR Inten    --     17.5107               771.5881                73.1477

                     79                     80                     81
                      A                      A                      A
 Frequencies --   1206.3301              1234.4017              1243.5284
 Red. masses --      1.5636                 1.4976                 1.5887
 Frc consts  --      1.3406                 1.3445                 1.4475
 IR Inten    --    386.0443               461.3563                37.7754

                     82                     83                     84
                      A                      A                      A
 Frequencies --   1260.4712              1264.2174              1267.6399
 Red. masses --      2.1269                 1.3075                 1.3061
 Frc consts  --      1.9909                 1.2312                 1.2366
 IR Inten    --     51.8529               583.6409               118.8596

                     85                     86                     87
                      A                      A                      A
 Frequencies --   1278.4946              1303.4149              1321.0029
 Red. masses --      1.8343                 2.0718                 5.1263
 Frc consts  --      1.7665                 2.0737                 5.2707
 IR Inten    --     91.4233               163.5408                 7.9008

                     88                     89                     90
                      A                      A                      A
 Frequencies --   1330.4242              1354.4873              1368.1610
 Red. masses --      3.7764                 2.4647                 2.5730
 Frc consts  --      3.9383                 2.6642                 2.8377
 IR Inten    --      7.2584              4251.9548                15.1525

                     91                     92                     93
                      A                      A                      A
 Frequencies --   1407.1850              1423.2987              1439.8104
 Red. masses --      3.0902                 2.8023                 1.5966
 Frc consts  --      3.6052                 3.3446                 1.9501
 IR Inten    --      7.8386                64.7326                22.6426

                     94                     95                     96
                      A                      A                      A
 Frequencies --   1444.1804              1477.7304              1482.4616
 Red. masses --      1.5715                 1.3178                 1.1722
 Frc consts  --      1.9311                 1.6955                 1.5178
 IR Inten    --      9.6831              1414.7716                28.9433

                     97                     98                     99
                      A                      A                      A
 Frequencies --   1519.7220              1535.5057              1568.7272
 Red. masses --      3.5007                 4.4326                 6.8856
 Frc consts  --      4.7636                 6.1576                 9.9837
 IR Inten    --   4096.7513               125.7466                98.8800

                    100                    101                    102
                      A                      A                      A
 Frequencies --   1579.2181              1588.9548              1597.2465
 Red. masses --      6.9017                 7.8521                 7.1074
 Frc consts  --     10.1412                11.6804                10.6833
 IR Inten    --     28.6716               295.3491              1027.8862

                    103                    104                    105
                      A                      A                      A
 Frequencies --   1654.1380              1659.1858              1677.6450
 Red. masses --      5.2265                 5.2766                 9.9525
 Frc consts  --      8.4257                 8.5584                16.5037
 IR Inten    --     23.3737                55.8922                90.5858

                    106                    107                    108
                      A                      A                      A
 Frequencies --   1687.1592              2863.3929              2899.2891
 Red. masses --      8.9483                 1.0801                 1.0777
 Frc consts  --     15.0074                 5.2178                 5.3376
 IR Inten    --   1171.7574               642.7526                 8.8749

                    109                    110                    111
                      A                      A                      A
 Frequencies --   3025.0170              3030.6148              3057.8935
 Red. masses --      1.0554                 1.0554                 1.1103
 Frc consts  --      5.6904                 5.7114                 6.1171
 IR Inten    --    272.8578               224.5321                12.9140

                    112                    113                    114
                      A                      A                      A
 Frequencies --   3065.3759              3166.5323              3166.9856
 Red. masses --      1.1105                 1.0857                 1.0859
 Frc consts  --      6.1478                 6.4142                 6.4172
 IR Inten    --     12.8134                64.2187               128.2247

                    115                    116                    117
                      A                      A                      A
 Frequencies --   3181.6493              3189.5803              3193.8957
 Red. masses --      1.0956                 1.0914                 1.0940
 Frc consts  --      6.5346                 6.5422                 6.5751
 IR Inten    --     13.0881                15.7739                 5.3442

                    118                    119                    120
                      A                      A                      A
 Frequencies --   3194.1372              3556.8788              3576.6572
 Red. masses --      1.0948                 1.0811                 1.0804
 Frc consts  --      6.5808                 8.0583                 8.1433
 IR Inten    --     12.2803               157.1204                63.0496

 - Thermochemistry -
 -------------------
 Temperature   298.150 Kelvin.  Pressure   1.00000 Atm.
 Atom     1 has atomic number  7 and mass  14.00307

 Molecular mass:   406.05582 amu.
 Principal axes and moments of inertia in atomic units:
                           1         2         3
     Eigenvalues --  4536.05128********************
           X            1.00000  -0.00075   0.00035
           Y            0.00075   0.99999   0.00490
           Z           -0.00035  -0.00490   0.99999
 This molecule is an asymmetric top.
 Rotational symmetry number  1.
 Warning -- assumption of classical behavior for rotation
           may cause significant error
 Rotational temperatures (Kelvin)      0.01909     0.00335     0.00301
 Rotational constants (GHZ):           0.39787     0.06981     0.06268
 Zero-point vibrational energy     794971.5 (Joules/Mol)
                                  190.00276 (Kcal/Mol)
 Warning -- explicit consideration of  36 degrees of freedom as
           vibrations may cause significant error
 Vibrational temperatures:     21.79    32.15    42.38    52.08    83.25
          (Kelvin)             96.33   149.23   154.57   168.96   201.84
                              228.71   248.92   254.96   301.18   309.53
                              333.96   349.47   375.03   418.79   466.37
                              487.45   514.76   524.10   542.60   623.27
                              651.98   677.85   700.82   718.63   730.25
                              742.71   763.41   817.90   834.58   862.92
                              870.81   903.25   912.45   951.66   984.32
                              988.61   996.93  1012.50  1018.26  1025.23
                             1038.11  1044.77  1063.66  1081.38  1101.02
                             1132.22  1150.79  1199.21  1205.50  1212.63
                             1221.96  1264.82  1336.74  1337.63  1361.13
                             1389.92  1399.05  1416.45  1427.87  1460.51
                             1479.20  1495.32  1514.55  1520.79  1526.21
                             1599.15  1607.77  1670.97  1673.60  1678.64
                             1680.33  1711.42  1725.90  1735.64  1776.03
                             1789.16  1813.54  1818.93  1823.85  1839.47
                             1875.32  1900.63  1914.18  1948.81  1968.48
                             2024.63  2047.81  2071.57  2077.85  2126.12
                             2132.93  2186.54  2209.25  2257.05  2272.14
                             2286.15  2298.08  2379.94  2387.20  2413.76
                             2427.45  4119.78  4171.43  4352.32  4360.38
                             4399.63  4410.39  4555.93  4556.59  4577.68
                             4589.09  4595.30  4595.65  5117.56  5146.01

 Zero-point correction=                           0.302789 (Hartree/Particle)
 Thermal correction to Energy=                    0.325698
 Thermal correction to Enthalpy=                  0.326642
 Thermal correction to Gibbs Free Energy=         0.247194
 Sum of electronic and zero-point Energies=          -1936.141269
 Sum of electronic and thermal Energies=             -1936.118359
 Sum of electronic and thermal Enthalpies=           -1936.117415
 Sum of electronic and thermal Free Energies=        -1936.196863

                     E (Thermal)             CV                S
                      KCal/Mol        Cal/Mol-Kelvin    Cal/Mol-Kelvin
 Total                  204.379             89.756            167.212
 Electronic               0.000              0.000              1.377
 Translational            0.889              2.981             43.895
 Rotational               0.889              2.981             36.466
 Vibrational            202.601             83.794             85.473
 Vibration     1          0.593              1.986              7.186
 Vibration     2          0.593              1.985              6.414
 Vibration     3          0.593              1.984              5.866
 Vibration     4          0.594              1.982              5.457
 Vibration     5          0.596              1.974              4.529
 Vibration     6          0.598              1.970              4.241
 Vibration     7          0.605              1.946              3.383
 Vibration     8          0.606              1.943              3.315
 Vibration     9          0.608              1.935              3.142
 Vibration    10          0.615              1.913              2.800
 Vibration    11          0.621              1.893              2.562
 Vibration    12          0.627              1.876              2.403
 Vibration    13          0.628              1.870              2.358
 Vibration    14          0.642              1.827              2.050
 Vibration    15          0.645              1.818              2.000
 Vibration    16          0.653              1.792              1.863
 Vibration    17          0.659              1.775              1.782
 Vibration    18          0.669              1.745              1.657
 Vibration    19          0.687              1.690              1.468
 Vibration    20          0.709              1.627              1.289
 Vibration    21          0.719              1.598              1.218
 Vibration    22          0.733              1.559              1.132
 Vibration    23          0.738              1.546              1.104
 Vibration    24          0.748              1.519              1.051
 Vibration    25          0.794              1.398              0.848
 Vibration    26          0.812              1.354              0.786
 Vibration    27          0.828              1.314              0.734
 Vibration    28          0.843              1.279              0.691
 Vibration    29          0.855              1.251              0.659
 Vibration    30          0.863              1.233              0.640
 Vibration    31          0.871              1.214              0.619
 Vibration    32          0.886              1.182              0.586
 Vibration    33          0.924              1.099              0.507
 Vibration    34          0.937              1.074              0.485
 Vibration    35          0.958              1.032              0.450
 Vibration    36          0.964              1.021              0.441

                           ! Non-Optimized Parameters !
 Normal termination of Gaussian 16 at Tue Feb  6 00:31:02 2024.
