 Gaussian 09, Revision A.02,
 Gaussian 09:  EM64L-G09RevA.02 11-Jun-2009

 ---------------------------------------------------------
 # td=(nstates=10) cam-b3lyp/6-31+g(d,p) geom=connectivity
 ---------------------------------------------------------

 -------
 Energy:
 -------
 Symbolic Z-matrix:
 Charge =  0 Multiplicity = 1

                         Standard orientation:
 ---------------------------------------------------------------------
 Center     Atomic      Atomic             Coordinates (Angstroms)
 Number     Number       Type             X           Y           Z
 ---------------------------------------------------------------------
      1          7           0        1.626712    1.358431   -0.699493
      2          6           0        0.279126    1.800347   -0.692468
      3          6           0        1.745512   -0.014814   -0.670304
      4          6           0        0.474490   -0.547147   -0.654376
      5          6           0       -0.474496    0.547155   -0.654368
      6          6           0       -1.745517    0.014822   -0.670321
      7          6           0       -0.279133   -1.800339   -0.692504
      8          7           0       -1.626718   -1.358424   -0.699541
      9          8           0       -0.043487    2.983817   -0.729089
     10          8           0        0.043482   -2.983808   -0.729135
     11          1           0       -2.435260   -1.974665   -0.697547
     12          1           0        2.435248    1.974678   -0.697515
     13          6           0       -4.250359   -0.134757   -0.142798
     14          6           0       -5.276631    0.541537    0.663689
     15          6           0       -5.181074    1.857567    0.976749
     16          1           0       -5.937873    2.340688    1.586690
     17          6           0       -4.039981    2.636318    0.520368
     18          1           0       -3.981121    3.676823    0.825983
     19          6           0       -3.062669    2.116484   -0.244575
     20          1           0       -2.211552    2.715907   -0.552310
     21          6           0       -3.104741    0.685354   -0.738507
     22          7           0       -4.387326   -1.394392   -0.365951
     23          6           0        5.276632   -0.541541    0.663689
     24          6           0        4.250362    0.134754   -0.142798
     25          6           0        3.104734   -0.685353   -0.738495
     26          6           0        3.062657   -2.116480   -0.244554
     27          1           0        2.211539   -2.715902   -0.552287
     28          6           0        4.039968   -2.636314    0.520389
     29          1           0        3.981103   -3.676817    0.826011
     30          6           0        5.181068   -1.857568    0.976760
     31          1           0        5.937869   -2.340689    1.586699
     32          7           0        4.387338    1.394386   -0.365963
     33          6           0        5.567845    1.970240    0.230108
     34          1           0        5.289526    2.753866    0.941788
     35          1           0        6.206061    2.410332   -0.542500
     36          6           0       -5.567824   -1.970250    0.230134
     37          1           0       -6.206040   -2.410360   -0.542464
     38          1           0       -5.289492   -2.753864    0.941822
     39         16           0        6.513235    0.626794    1.128733
     40         16           0       -6.513224   -0.626803    1.128745
     41          1           0        3.344028   -0.738687   -1.818235
     42          1           0       -3.344044    0.738678   -1.818246
 ---------------------------------------------------------------------

 SCF Done:  E(RCAM-B3LYP) =  -1935.80686616     A.U. after   18 cycles

 Excitation energies and oscillator strengths:

 Excited State   1:      Singlet-A      3.4050 eV  364.13 nm  f=0.0883  <S**2>=0.000
     103 ->108        -0.17558
     104 ->107        -0.18384
     105 ->106         0.65569
 This state for optimization and/or second-order correction.
 Copying the excited state density for this state as the 1-particle RhoCI density.

 Excited State   2:      Singlet-A      3.4802 eV  356.25 nm  f=0.0048  <S**2>=0.000
     103 ->107         0.49119
     104 ->106        -0.14623
     104 ->108         0.47575

 Excited State   3:      Singlet-A      3.4929 eV  354.97 nm  f=0.5803  <S**2>=0.000
     103 ->106        -0.15167
     103 ->108         0.43826
     104 ->107         0.46311
     105 ->106         0.24407

 Excited State   4:      Singlet-A      3.9197 eV  316.31 nm  f=0.0000  <S**2>=0.000
     101 ->106         0.20975
     104 ->106         0.52854
     104 ->108         0.11944
     105 ->107         0.36898

 Excited State   5:      Singlet-A      3.9381 eV  314.84 nm  f=0.0000  <S**2>=0.000
     101 ->106        -0.13937
     104 ->106        -0.32456
     105 ->107         0.58232

 Excited State   6:      Singlet-A      3.9458 eV  314.22 nm  f=0.0072  <S**2>=0.000
     103 ->106         0.20833
     105 ->108         0.66019

 Excited State   7:      Singlet-A      3.9795 eV  311.55 nm  f=0.0014  <S**2>=0.000
     103 ->106         0.63343
     103 ->108         0.16749
     105 ->108        -0.19610

 Excited State   8:      Singlet-A      4.0076 eV  309.37 nm  f=0.0000  <S**2>=0.000
     102 ->106         0.68749
     102 ->108         0.11513

 Excited State   9:      Singlet-A      4.2024 eV  295.03 nm  f=0.0000  <S**2>=0.000
      98 ->106        -0.11468
     101 ->106         0.60302
     101 ->108         0.10316
     104 ->106        -0.24609

 Excited State  10:      Singlet-A      4.5922 eV  269.99 nm  f=0.0005  <S**2>=0.000
     100 ->106         0.18495
     103 ->109        -0.37171
     103 ->111        -0.17761
     103 ->120        -0.11928
     104 ->110         0.40658
     104 ->117        -0.11032
     104 ->127        -0.10386

 The electronic state is 1-A.
 Alpha  occ. eigenvalues --  -88.97832 -88.97832 -19.21265 -19.21265 -14.45862
 Alpha  occ. eigenvalues --  -14.45862 -14.44201 -14.44201 -10.38755 -10.38754
 Alpha  occ. eigenvalues --  -10.35641 -10.35640 -10.35480 -10.35480 -10.34120
 Alpha  occ. eigenvalues --  -10.34120 -10.32543 -10.32543 -10.32354 -10.32354
 Alpha  occ. eigenvalues --  -10.29547 -10.29547 -10.28426 -10.28426 -10.28253
 Alpha  occ. eigenvalues --  -10.28253 -10.27394 -10.27355  -8.03915  -8.03915
 Alpha  occ. eigenvalues --   -6.00501  -6.00501  -6.00161  -6.00161  -5.99498
 Alpha  occ. eigenvalues --   -5.99498  -1.13723  -1.13156  -1.07212  -1.06867
 Alpha  occ. eigenvalues --   -1.05844  -1.04784  -0.94811  -0.94795  -0.90797
 Alpha  occ. eigenvalues --   -0.90705  -0.89315  -0.85569  -0.84755  -0.84228
 Alpha  occ. eigenvalues --   -0.84028  -0.79979  -0.77060  -0.75551  -0.74628
 Alpha  occ. eigenvalues --   -0.73428  -0.70073  -0.68745  -0.67593  -0.67333
 Alpha  occ. eigenvalues --   -0.64742  -0.61471  -0.60407  -0.59196  -0.58466
 Alpha  occ. eigenvalues --   -0.57693  -0.57390  -0.56887  -0.56736  -0.55651
 Alpha  occ. eigenvalues --   -0.55408  -0.54854  -0.54759  -0.54578  -0.53136
 Alpha  occ. eigenvalues --   -0.52176  -0.51487  -0.50751  -0.50618  -0.49551
 Alpha  occ. eigenvalues --   -0.48204  -0.48189  -0.47183  -0.46923  -0.46346
 Alpha  occ. eigenvalues --   -0.44238  -0.43924  -0.43665  -0.43485  -0.41642
 Alpha  occ. eigenvalues --   -0.41192  -0.40114  -0.40029  -0.39168  -0.39115
 Alpha  occ. eigenvalues --   -0.36313  -0.36081  -0.34926  -0.34915  -0.34630
 Alpha  occ. eigenvalues --   -0.32928  -0.32652  -0.26499  -0.26468  -0.26096
 Alpha virt. eigenvalues --   -0.04927  -0.04170  -0.04097   0.01988   0.02002
 Alpha virt. eigenvalues --    0.02245   0.02369   0.03552   0.03652   0.04032
 Alpha virt. eigenvalues --    0.04438   0.04710   0.05000   0.05006   0.05422

 Mulliken atomic charges:
              1
     1  N   -0.383453
     2  C    0.495256
     3  C    0.010915
     4  C   -0.526561
     5  C   -0.526564
     6  C    0.010908
     7  C    0.495252
     8  N   -0.383454
     9  O   -0.543857
    10  O   -0.543857
    11  H    0.357495
    12  H    0.357493
    13  C   -0.646675
    14  C    0.309026
    15  C    0.351871
    16  H    0.148334
    17  C   -0.096261
    18  H    0.142507
    19  C   -0.240891
    20  H    0.190959
    21  C    0.077736
    22  N   -0.189137
    23  C    0.309002
    24  C   -0.646632
    25  C    0.077697
    26  C   -0.240844
    27  H    0.190959
    28  C   -0.096323
    29  H    0.142507
    30  C    0.351914
    31  H    0.148334
    32  N   -0.189140
    33  C   -0.247072
    34  H    0.194044
    35  H    0.190787
    36  C   -0.247073
    37  H    0.190786
    38  H    0.194044
    39  S    0.176849
    40  S    0.176853
    41  H    0.228132
    42  H    0.228132
 Sum of Mulliken atomic charges =   0.00000

 Dipole moment (field-independent basis, Debye):
    X=              0.0000    Y=              0.0000    Z=              0.1903  Tot=              0.1903
 Quadrupole moment (field-independent basis, Debye-Ang):
   XX=           -152.7468   YY=           -182.8584   ZZ=           -176.8705
   XY=              3.4966   XZ=             -0.0001   YZ=             -0.0003

 Normal termination of Gaussian 09 at Mon Sep 18 17:50:25 2023.
