 Gaussian 09, Revision A.02,
 Gaussian 09:  EM64L-G09RevA.02 11-Jun-2009

 ---------------------------------------------------------
 # td=(nstates=10) cam-b3lyp/6-31+g(d,p) geom=connectivity
 ---------------------------------------------------------

 -------
 Energy:
 -------
 Symbolic Z-matrix:
 Charge =  0 Multiplicity = 1

                         Standard orientation:
 ---------------------------------------------------------------------
 Center     Atomic      Atomic             Coordinates (Angstroms)
 Number     Number       Type             X           Y           Z
 ---------------------------------------------------------------------
      1          7           0        1.617241    1.376424    0.000010
      2          6           0        0.266822    1.794523    0.000009
      3          6           0        1.757338   -0.002189    0.000014
      4          6           0        0.470564   -0.536632    0.000028
      5          6           0       -0.470565    0.536637    0.000028
      6          6           0       -1.757338    0.002194    0.000008
      7          6           0       -0.266823   -1.794518    0.000000
      8          7           0       -1.617241   -1.376420   -0.000007
      9          8           0       -0.087738    2.973176    0.000007
     10          8           0        0.087737   -2.973171    0.000000
     11          1           0       -2.410373   -2.009781    0.000003
     12          1           0        2.410370    2.009788    0.000009
     13          6           0       -4.297267   -0.074664   -0.000002
     14          6           0       -5.556836    0.645065   -0.000008
     15          6           0       -5.574084    2.070593   -0.000007
     16          1           0       -6.519319    2.604337   -0.000010
     17          6           0       -4.374499    2.740374   -0.000002
     18          1           0       -4.358826    3.825707   -0.000002
     19          6           0       -3.131977    2.048662    0.000003
     20          1           0       -2.212103    2.628468    0.000008
     21          6           0       -3.050289    0.660419    0.000003
     22          6           0       -6.613246   -0.258637   -0.000012
     23          1           0       -7.674917   -0.049367   -0.000021
     24         16           0       -5.996827   -1.845974   -0.000007
     25          7           0       -4.393093   -1.410557   -0.000001
     26          6           0        4.297268    0.074664   -0.000002
     27          6           0        5.556835   -0.645069   -0.000008
     28          6           0        5.574080   -2.070597   -0.000007
     29          1           0        6.519313   -2.604343   -0.000014
     30          6           0        4.374493   -2.740375    0.000003
     31          1           0        4.358817   -3.825707    0.000004
     32          6           0        3.131973   -2.048659    0.000010
     33          1           0        2.212097   -2.628464    0.000016
     34          6           0        3.050288   -0.660416    0.000007
     35          6           0        6.613248    0.258630   -0.000014
     36          1           0        7.674918    0.049357   -0.000015
     37         16           0        5.996833    1.845969   -0.000013
     38          7           0        4.393098    1.410556   -0.000003
 ---------------------------------------------------------------------

 SCF Done:  E(RCAM-B3LYP) =  -1933.45942257     A.U. after   17 cycles

 Excitation energies and oscillator strengths:

 Excited State   1:      Singlet-A      2.3636 eV  524.57 nm  f=0.6465  <S**2>=0.000
     103 ->104         0.69842
 This state for optimization and/or second-order correction.
 Copying the excited state density for this state as the 1-particle RhoCI density.

 Excited State   2:      Singlet-A      3.0869 eV  401.65 nm  f=0.0000  <S**2>=0.000
     103 ->105         0.69144

 Excited State   3:      Singlet-A      3.6292 eV  341.63 nm  f=0.0000  <S**2>=0.000
      97 ->104        -0.14349
     100 ->104         0.47228
     100 ->106         0.22411
     102 ->104        -0.41220
     102 ->106        -0.10961

 Excited State   4:      Singlet-A      3.6697 eV  337.86 nm  f=0.0414  <S**2>=0.000
     102 ->105         0.14156
     103 ->106         0.67840

 Excited State   5:      Singlet-A      3.8017 eV  326.13 nm  f=0.0000  <S**2>=0.000
      99 ->104         0.62339
      99 ->106         0.26362

 Excited State   6:      Singlet-A      3.9842 eV  311.19 nm  f=0.3069  <S**2>=0.000
     100 ->105         0.10576
     101 ->104         0.61559
     102 ->105         0.28523

 Excited State   7:      Singlet-A      4.0043 eV  309.62 nm  f=0.0000  <S**2>=0.000
     100 ->104         0.39619
     101 ->105         0.29271
     102 ->104         0.47431

 Excited State   8:      Singlet-A      4.2482 eV  291.85 nm  f=0.0000  <S**2>=0.000
      96 ->104         0.58527
      96 ->106         0.25624
      99 ->105         0.19591
      99 ->109         0.13507

 Excited State   9:      Singlet-A      4.5209 eV  274.25 nm  f=0.2553  <S**2>=0.000
      97 ->105        -0.30896
      98 ->104         0.53061
     100 ->105        -0.16979
     102 ->114         0.13190
     103 ->115        -0.18648

 Excited State  10:      Singlet-A      4.5217 eV  274.20 nm  f=0.0000  <S**2>=0.000
      97 ->104         0.52242
      98 ->105        -0.34919
     100 ->104         0.10510
     102 ->115        -0.12887
     103 ->114         0.18713

 The electronic state is 1-A.
 Alpha  occ. eigenvalues --  -89.04310 -89.04310 -19.20226 -19.20226 -14.45063
 Alpha  occ. eigenvalues --  -14.45063 -14.44789 -14.44789 -10.37489 -10.37488
 Alpha  occ. eigenvalues --  -10.34180 -10.34179 -10.33438 -10.33438 -10.33089
 Alpha  occ. eigenvalues --  -10.33089 -10.30703 -10.30703 -10.30507 -10.30506
 Alpha  occ. eigenvalues --  -10.29920 -10.29920 -10.29009 -10.29009 -10.28872
 Alpha  occ. eigenvalues --  -10.28872 -10.26296 -10.26252  -8.09962  -8.09962
 Alpha  occ. eigenvalues --   -6.06558  -6.06558  -6.06033  -6.06033  -6.05804
 Alpha  occ. eigenvalues --   -6.05804  -1.12547  -1.11954  -1.07537  -1.07524
 Alpha  occ. eigenvalues --   -1.05285  -1.03916  -0.95354  -0.95344  -0.91189
 Alpha  occ. eigenvalues --   -0.91165  -0.88472  -0.86022  -0.85034  -0.84785
 Alpha  occ. eigenvalues --   -0.84719  -0.79693  -0.76898  -0.74508  -0.72561
 Alpha  occ. eigenvalues --   -0.71609  -0.69808  -0.68791  -0.68269  -0.67902
 Alpha  occ. eigenvalues --   -0.64217  -0.62097  -0.61038  -0.59990  -0.57790
 Alpha  occ. eigenvalues --   -0.57119  -0.56719  -0.55752  -0.55749  -0.54605
 Alpha  occ. eigenvalues --   -0.53857  -0.53645  -0.52155  -0.51713  -0.51526
 Alpha  occ. eigenvalues --   -0.51417  -0.51097  -0.50175  -0.49675  -0.48860
 Alpha  occ. eigenvalues --   -0.45912  -0.45880  -0.45217  -0.44820  -0.44548
 Alpha  occ. eigenvalues --   -0.44441  -0.43867  -0.43542  -0.43373  -0.41409
 Alpha  occ. eigenvalues --   -0.40774  -0.38355  -0.38045  -0.37605  -0.37088
 Alpha  occ. eigenvalues --   -0.33822  -0.32811  -0.32641  -0.32004  -0.31777
 Alpha  occ. eigenvalues --   -0.30499  -0.29752  -0.23378
 Alpha virt. eigenvalues --   -0.07763  -0.05269  -0.02622   0.01951   0.01990
 Alpha virt. eigenvalues --    0.02256   0.02702   0.02829   0.03905   0.03919
 Alpha virt. eigenvalues --    0.04176   0.04196   0.04878   0.04964   0.05338

 Mulliken atomic charges:
              1
     1  N   -0.497533
     2  C    0.695066
     3  C    0.575122
     4  C   -0.207734
     5  C   -0.207739
     6  C    0.575121
     7  C    0.695067
     8  N   -0.497533
     9  O   -0.548602
    10  O   -0.548603
    11  H    0.355549
    12  H    0.355548
    13  C   -0.676316
    14  C    0.680060
    15  C   -0.523992
    16  H    0.148099
    17  C   -0.311469
    18  H    0.150496
    19  C   -0.624995
    20  H    0.193048
    21  C    0.189268
    22  C   -0.052051
    23  H    0.186604
    24  S    0.658728
    25  N   -0.389345
    26  C   -0.676321
    27  C    0.680074
    28  C   -0.523990
    29  H    0.148099
    30  C   -0.311466
    31  H    0.150496
    32  C   -0.625006
    33  H    0.193048
    34  C    0.189266
    35  C   -0.052053
    36  H    0.186604
    37  S    0.658728
    38  N   -0.389345
 Sum of Mulliken atomic charges =   0.00000

 Dipole moment (field-independent basis, Debye):
    X=              0.0000    Y=              0.0000    Z=              0.0000  Tot=              0.0000
 Quadrupole moment (field-independent basis, Debye-Ang):
   XX=            -84.0740   YY=           -185.1834   ZZ=           -179.0931
   XY=             -9.6422   XZ=              0.0000   YZ=             -0.0001

 Normal termination of Gaussian 09 at Wed Aug 30 21:17:55 2023.
