 Gaussian 09, Revision A.02,
 Gaussian 09:  EM64L-G09RevA.02 11-Jun-2009

 ----------------------------------------------------
 # opt=tight freq b3lyp/6-31+g(d,p) geom=connectivity
 ----------------------------------------------------

 -------
 Energy:
 -------
 Symbolic Z-matrix:
 Charge =  0 Multiplicity = 1

 SCF Done:  E(RB3LYP) =  -1934.09132701     A.U. after   17 cycles
 SCF Done:  E(RB3LYP) =  -1934.09132711     A.U. after   17 cycles
 SCF Done:  E(RB3LYP) =  -1934.09132715     A.U. after    8 cycles
 SCF Done:  E(RB3LYP) =  -1934.09132718     A.U. after   17 cycles
 SCF Done:  E(RB3LYP) =  -1934.09132719     A.U. after    7 cycles
 SCF Done:  E(RB3LYP) =  -1934.09132719     A.U. after    6 cycles
 SCF Done:  E(RB3LYP) =  -1934.09132719     A.U. after    6 cycles
 Optimization completed.
    -- Stationary point found.
 Normal termination of Gaussian 09 at Thu Aug 24 23:21:59 2023.

 ----------------------------------------------------------------------
 #N Geom=AllCheck Guess=TCheck SCRF=Check GenChk RB3LYP/6-31+G(d,p) Fre
 q
 ----------------------------------------------------------------------

 Energy:
 -------
 Redundant internal coordinates taken from checkpoint file:
 /home/nathalia.rosa/DPP-SUB/DPP-SUB-8/DPP-SUB-8-OPT-FREQ.chk
 Charge =  0 Multiplicity = 1

                         Standard orientation:
 ---------------------------------------------------------------------
 Center     Atomic      Atomic             Coordinates (Angstroms)
 Number     Number       Type             X           Y           Z
 ---------------------------------------------------------------------
      1          7           0        1.572774    1.426647    0.000154
      2          6           0        0.211608    1.804155    0.000284
      3          6           0        1.755108    0.052801   -0.000043
      4          6           0        0.488716   -0.522410   -0.000031
      5          6           0       -0.488716    0.522410    0.000158
      6          6           0       -1.755108   -0.052799    0.000107
      7          6           0       -0.211611   -1.804155   -0.000198
      8          7           0       -1.572776   -1.426646   -0.000128
      9          8           0       -0.175588    2.971583    0.000439
     10          8           0        0.175583   -2.971583   -0.000396
     11          1           0       -2.347925   -2.082243   -0.000161
     12          1           0        2.347921    2.082247    0.000168
     13          6           0       -4.277623   -0.194490    0.000184
     14          6           0       -5.527948    0.469234    0.000315
     15          6           0       -5.627766    1.863388    0.000503
     16          1           0       -6.592602    2.359772    0.000609
     17          6           0       -4.441888    2.595629    0.000567
     18          1           0       -4.483405    3.680291    0.000713
     19          6           0       -3.191304    1.964808    0.000439
     20          1           0       -2.288805    2.569790    0.000495
     21          6           0       -3.073314    0.563692    0.000244
     22          7           0       -4.360561   -1.581086   -0.000005
     23          6           0        5.527950   -0.469235   -0.000358
     24          6           0        4.277624    0.194491   -0.000198
     25          6           0        3.073315   -0.563691   -0.000213
     26          6           0        3.191304   -1.964807   -0.000391
     27          1           0        2.288805   -2.569788   -0.000408
     28          6           0        4.441887   -2.595628   -0.000549
     29          1           0        4.483403   -3.680290   -0.000681
     30          6           0        5.627765   -1.863388   -0.000531
     31          1           0        6.592600   -2.359774   -0.000660
     32          7           0        4.360564    1.581086   -0.000029
     33          6           0        5.594763    1.976935   -0.000064
     34          1           0        5.888415    3.020338    0.000049
     35          6           0       -5.594761   -1.976935   -0.000005
     36          1           0       -5.888410   -3.020339   -0.000141
     37         16           0        6.816507    0.719567   -0.000297
     38         16           0       -6.816504   -0.719570    0.000199
 ---------------------------------------------------------------------

 SCF Done:  E(RB3LYP) =  -1934.09132719     A.U. after    2 cycles

 The electronic state is 1-A.
 Alpha  occ. eigenvalues --  -88.94231 -88.94231 -19.13313 -19.13313 -14.37850
 Alpha  occ. eigenvalues --  -14.37850 -14.37324 -14.37324 -10.30078 -10.30078
 Alpha  occ. eigenvalues --  -10.28415 -10.28415 -10.26822 -10.26822 -10.25538
 Alpha  occ. eigenvalues --  -10.25538 -10.25287 -10.25287 -10.23421 -10.23421
 Alpha  occ. eigenvalues --  -10.22723 -10.22723 -10.21586 -10.21586 -10.21028
 Alpha  occ. eigenvalues --  -10.21028 -10.19589 -10.19545  -8.00205  -8.00205
 Alpha  occ. eigenvalues --   -5.96617  -5.96617  -5.96274  -5.96274  -5.95893
 Alpha  occ. eigenvalues --   -5.95893  -1.04724  -1.04213  -0.99659  -0.99644
 Alpha  occ. eigenvalues --   -0.97480  -0.96102  -0.87695  -0.87690  -0.83281
 Alpha  occ. eigenvalues --   -0.83257  -0.80792  -0.78526  -0.77994  -0.76334
 Alpha  occ. eigenvalues --   -0.75945  -0.72373  -0.69639  -0.67423  -0.65142
 Alpha  occ. eigenvalues --   -0.64602  -0.63095  -0.61712  -0.60610  -0.60281
 Alpha  occ. eigenvalues --   -0.57145  -0.54481  -0.53139  -0.52454  -0.51179
 Alpha  occ. eigenvalues --   -0.51060  -0.50916  -0.50146  -0.48790  -0.48217
 Alpha  occ. eigenvalues --   -0.47907  -0.46763  -0.45719  -0.45163  -0.44503
 Alpha  occ. eigenvalues --   -0.43925  -0.43896  -0.43614  -0.42664  -0.42189
 Alpha  occ. eigenvalues --   -0.41842  -0.41543  -0.39504  -0.38832  -0.38462
 Alpha  occ. eigenvalues --   -0.37965  -0.37126  -0.37074  -0.36627  -0.35446
 Alpha  occ. eigenvalues --   -0.34782  -0.32032  -0.31698  -0.31174  -0.31041
 Alpha  occ. eigenvalues --   -0.27634  -0.26896  -0.26677  -0.26544  -0.26479
 Alpha  occ. eigenvalues --   -0.26028  -0.25966  -0.19810
 Alpha virt. eigenvalues --   -0.10845  -0.06822  -0.05457  -0.04097  -0.02403
 Alpha virt. eigenvalues --   -0.02378  -0.01741  -0.00255  -0.00111  -0.00083
 Alpha virt. eigenvalues --    0.00324   0.01639   0.01768   0.01771   0.02050

 Mulliken atomic charges:
              1
     1  N   -0.444071
     2  C    0.541850
     3  C    0.720255
     4  C   -0.204949
     5  C   -0.204952
     6  C    0.720246
     7  C    0.541855
     8  N   -0.444071
     9  O   -0.536284
    10  O   -0.536283
    11  H    0.346323
    12  H    0.346323
    13  C   -0.142457
    14  C   -0.420435
    15  C    0.043686
    16  H    0.140923
    17  C   -0.541624
    18  H    0.141124
    19  C   -0.422402
    20  H    0.185555
    21  C    0.274456
    22  N   -0.089994
    23  C   -0.420411
    24  C   -0.142476
    25  C    0.274449
    26  C   -0.422389
    27  H    0.185555
    28  C   -0.541627
    29  H    0.141124
    30  C    0.043699
    31  H    0.140923
    32  N   -0.089993
    33  C    0.052237
    34  H    0.170386
    35  C    0.052236
    36  H    0.170386
    37  S    0.185414
    38  S    0.185415
 Sum of Mulliken atomic charges =   0.00000

 Dipole moment (field-independent basis, Debye):
    X=              0.0000    Y=              0.0000    Z=              0.0000  Tot=              0.0001
 Quadrupole moment (field-independent basis, Debye-Ang):
   XX=           -109.9743   YY=           -176.1847   ZZ=           -178.6895
   XY=              3.8575   XZ=             -0.0030   YZ=             -0.0002

  Exact polarizability: 681.652  16.045 343.022  -0.024   0.026 140.920
 Approx polarizability:1014.668  71.784 677.118  -0.028   0.055 232.020

                     1                      2                      3
                     A                      A                      A
 Frequencies --    19.2750                37.5419                50.3454
 Red. masses --    11.9227                 5.5328                 8.8224
 Frc consts  --     0.0026                 0.0046                 0.0132
 IR Inten    --     1.3046                 1.0917                 0.0000

                     4                      5                      6
                     A                      A                      A
 Frequencies --    60.8351                76.4067               114.6154
 Red. masses --     8.8439                 8.9994                12.7255
 Frc consts  --     0.0193                 0.0310                 0.0985
 IR Inten    --     2.1300                 0.0000                 1.1604

                     7                      8                      9
                     A                      A                      A
 Frequencies --   130.6871               148.6285               164.1604
 Red. masses --     8.8666                11.9170                 9.3216
 Frc consts  --     0.0892                 0.1551                 0.1480
 IR Inten    --     0.0000                 2.2245                 0.0000

                    10                     11                     12
                     A                      A                      A
 Frequencies --   173.1246               202.0383               205.6604
 Red. masses --     9.7392                 5.4922                11.3125
 Frc consts  --     0.1720                 0.1321                 0.2819
 IR Inten    --     0.0000                 2.8456                 0.8890

                    13                     14                     15
                     A                      A                      A
 Frequencies --   211.1797               226.8530               248.0295
 Red. masses --     5.0695                 7.3631                 5.3854
 Frc consts  --     0.1332                 0.2233                 0.1952
 IR Inten    --     0.0000                 1.4608                 0.0000

                    16                     17                     18
                     A                      A                      A
 Frequencies --   252.4995               269.0105               314.6661
 Red. masses --     5.0079                 9.7732                 9.9198
 Frc consts  --     0.1881                 0.4167                 0.5787
 IR Inten    --     5.5278                 0.0000                 5.9324

                    19                     20                     21
                     A                      A                      A
 Frequencies --   361.1400               382.8059               389.8244
 Red. masses --     7.6378                 8.0624                 7.4895
 Frc consts  --     0.5869                 0.6961                 0.6706
 IR Inten    --    14.1662                 0.0000                 0.0000

                    22                     23                     24
                     A                      A                      A
 Frequencies --   405.3824               456.7820               474.2112
 Red. masses --    11.1134                10.3379                 4.5910
 Frc consts  --     1.0760                 1.2709                 0.6083
 IR Inten    --    16.4099                 0.0000                 3.2726

                    25                     26                     27
                     A                      A                      A
 Frequencies --   484.7149               505.9953               541.7476
 Red. masses --     4.6722                 5.9447                 8.6343
 Frc consts  --     0.6468                 0.8968                 1.4930
 IR Inten    --     0.0000                 3.0337                 0.0000

                    28                     29                     30
                     A                      A                      A
 Frequencies --   544.6038               552.9849               565.3733
 Red. masses --     7.4446                 5.5965                 8.7025
 Frc consts  --     1.3009                 1.0083                 1.6389
 IR Inten    --    10.0568                 0.0000                10.2425

                    31                     32                     33
                     A                      A                      A
 Frequencies --   571.3850               593.2387               600.2941
 Red. masses --     8.8471                 4.2809                 4.9299
 Frc consts  --     1.7018                 0.8876                 1.0467
 IR Inten    --     0.0000                 0.0739                 0.0000

                    34                     35                     36
                     A                      A                      A
 Frequencies --   631.0160               651.9322               664.2099
 Red. masses --     6.2540                 2.4254                 1.8203
 Frc consts  --     1.4672                 0.6073                 0.4732
 IR Inten    --     0.0000                38.2367                 0.0000

                    37                     38                     39
                     A                      A                      A
 Frequencies --   686.1643               691.2803               697.4111
 Red. masses --     8.8377                 1.5528                 7.7418
 Frc consts  --     2.4516                 0.4372                 2.2185
 IR Inten    --    24.8298                77.3570                 0.0000

                    40                     41                     42
                     A                      A                      A
 Frequencies --   700.9267               731.0401               733.9810
 Red. masses --     9.2852                 2.0914                10.8769
 Frc consts  --     2.6877                 0.6585                 3.4524
 IR Inten    --     0.0000                 0.0000                18.5314

                    43                     44                     45
                     A                      A                      A
 Frequencies --   738.5850               757.4056               760.3516
 Red. masses --     8.2103                 5.3062                 4.1494
 Frc consts  --     2.6388                 1.7934                 1.4134
 IR Inten    --     8.8273                 9.4416                 0.0000

                    46                     47                     48
                     A                      A                      A
 Frequencies --   760.6447               767.0319               787.9810
 Red. masses --     9.4699                 3.5715                 3.1152
 Frc consts  --     3.2282                 1.2380                 1.1396
 IR Inten    --     0.0000                45.7230                 0.0000

                    49                     50                     51
                     A                      A                      A
 Frequencies --   800.5468               802.4453               804.3977
 Red. masses --     1.4087                 6.5867                 1.7810
 Frc consts  --     0.5319                 2.4989                 0.6790
 IR Inten    --    89.8830               106.7707                 0.0000

                    52                     53                     54
                     A                      A                      A
 Frequencies --   811.0461               830.2813               830.9096
 Red. masses --     6.4469                 1.3958                 1.4403
 Frc consts  --     2.4986                 0.5669                 0.5859
 IR Inten    --     0.0000                20.4489                 0.0000

                    55                     56                     57
                     A                      A                      A
 Frequencies --   876.0415               887.5218               898.3840
 Red. masses --     6.5937                 5.0530                 5.8769
 Frc consts  --     2.9814                 2.3451                 2.7946
 IR Inten    --    30.5353                 0.0000               126.5830

                    58                     59                     60
                     A                      A                      A
 Frequencies --   942.7067               942.8982               971.7588
 Red. masses --     1.3333                 1.3357                 6.8290
 Frc consts  --     0.6981                 0.6996                 3.7995
 IR Inten    --     1.7480                 0.0000                 0.0000

                    61                     62                     63
                     A                      A                      A
 Frequencies --  1017.3619              1017.7402              1052.5789
 Red. masses --     1.3025                 1.3049                 4.9237
 Frc consts  --     0.7943                 0.7964                 3.2140
 IR Inten    --     3.4917                 0.0000               112.9748

                    64                     65                     66
                     A                      A                      A
 Frequencies --  1069.2012              1094.1260              1095.3126
 Red. masses --     4.2987                 2.2309                 2.2277
 Frc consts  --     2.8954                 1.5735                 1.5746
 IR Inten    --     0.0000                26.7120                 0.0000

                    67                     68                     69
                     A                      A                      A
 Frequencies --  1140.8780              1183.1693              1184.3625
 Red. masses --     7.9468                 1.4919                 1.4767
 Frc consts  --     6.0943                 1.2305                 1.2204
 IR Inten    --    88.8786                 0.0000                25.7385

                    70                     71                     72
                     A                      A                      A
 Frequencies --  1212.4852              1213.2124              1218.9284
 Red. masses --     2.3670                 2.3425                 5.6603
 Frc consts  --     2.0503                 2.0315                 4.9551
 IR Inten    --     0.0000                 2.0892                67.1454

                    73                     74                     75
                     A                      A                      A
 Frequencies --  1253.9610              1255.5331              1292.9667
 Red. masses --     1.7065                 1.6402                 4.2613
 Frc consts  --     1.5810                 1.5234                 4.1973
 IR Inten    --     0.0000                41.1153                 0.0000

                    76                     77                     78
                     A                      A                      A
 Frequencies --  1324.1784              1326.8451              1328.7986
 Red. masses --     2.0061                 2.0502                 1.9116
 Frc consts  --     2.0725                 2.1266                 1.9886
 IR Inten    --    24.7001                 0.0000               159.3727

                    79                     80                     81
                     A                      A                      A
 Frequencies --  1330.0048              1353.6004              1366.3925
 Red. masses --     1.9655                 7.9544                 6.0394
 Frc consts  --     2.0484                 8.5870                 6.6435
 IR Inten    --     0.0000                 0.0000                25.7070

                    82                     83                     84
                     A                      A                      A
 Frequencies --  1373.8169              1412.0332              1423.3257
 Red. masses --     5.9059                 2.6993                 2.6252
 Frc consts  --     6.5674                 3.1710                 3.1335
 IR Inten    --     0.0000                 0.0000                18.8357

                    85                     86                     87
                     A                      A                      A
 Frequencies --  1453.0829              1459.6699              1508.6328
 Red. masses --     3.8914                 3.2466                 2.7677
 Frc consts  --     4.8410                 4.0755                 3.7113
 IR Inten    --     0.0000               185.6096               218.9733

                    88                     89                     90
                     A                      A                      A
 Frequencies --  1509.4707              1527.2708              1527.4996
 Red. masses --     2.7047                 7.8094                 7.4464
 Frc consts  --     3.6309                10.7324                10.2366
 IR Inten    --     0.0000                 0.0267               283.5229

                    91                     92                     93
                     A                      A                      A
 Frequencies --  1579.9289              1590.8602              1600.1361
 Red. masses --     6.1610                 6.6244                 6.3661
 Frc consts  --     9.0610                 9.8777                 9.6037
 IR Inten    --     0.0000               152.1893                 0.0000

                    94                     95                     96
                     A                      A                      A
 Frequencies --  1618.6492              1623.9351              1633.1786
 Red. masses --     4.9289                 5.2775                 8.0593
 Frc consts  --     7.6086                 8.2000                12.6653
 IR Inten    --   108.0868                 0.0000               259.6340

                    97                     98                     99
                     A                      A                      A
 Frequencies --  1733.2372              1746.9822              3182.3889
 Red. masses --     9.7005                11.1219                 1.0936
 Frc consts  --    17.1696                19.9988                 6.5256
 IR Inten    --   951.3392                 0.0000                26.9119

                   100                    101                    102
                     A                      A                      A
 Frequencies --  3182.8796              3200.0243              3200.0645
 Red. masses --     1.0935                 1.0892                 1.0892
 Frc consts  --     6.5270                 6.5716                 6.5719
 IR Inten    --     0.0004                 9.2358                 0.0023

                   103                    104                    105
                     A                      A                      A
 Frequencies --  3214.2489              3214.2754              3235.5219
 Red. masses --     1.0960                 1.0960                 1.0943
 Frc consts  --     6.6716                 6.6717                 6.7499
 IR Inten    --    22.3379                 0.0005                 0.5674

                   106                    107                    108
                     A                      A                      A
 Frequencies --  3235.5247              3557.7778              3560.2670
 Red. masses --     1.0943                 1.0814                 1.0821
 Frc consts  --     6.7499                 8.0649                 8.0813
 IR Inten    --     1.3948               624.4399                 0.0014

 - Thermochemistry -
 -------------------
 Temperature   298.150 Kelvin.  Pressure   1.00000 Atm.
 Atom     1 has atomic number  7 and mass  14.00307

 Molecular mass:   402.02452 amu.
 Principal axes and moments of inertia in atomic units:
                           1         2         3
     Eigenvalues --  3754.81851********************
           X            0.99999  -0.00466   0.00005
           Y            0.00466   0.99999  -0.00013
           Z           -0.00005   0.00013   1.00000
 This molecule is an asymmetric top.
 Rotational symmetry number  1.
 Warning -- assumption of classical behavior for rotation
           may cause significant error
 Rotational temperatures (Kelvin)      0.02307     0.00323     0.00284
 Rotational constants (GHZ):           0.48065     0.06736     0.05908
 Zero-point vibrational energy     693422.9 (Joules/Mol)
                                  165.73205 (Kcal/Mol)
 Warning -- explicit consideration of  33 degrees of freedom as
           vibrations may cause significant error
 Vibrational temperatures:     27.73    54.01    72.44    87.53   109.93
          (Kelvin)            164.91   188.03   213.84   236.19   249.09
                              290.69   295.90   303.84   326.39   356.86
                              363.29   387.05   452.73   519.60   550.77
                              560.87   583.25   657.21   682.28   697.40
                              728.01   779.45   783.56   795.62   813.45
                              822.09   853.54   863.69   907.89   937.98
                              955.65   987.24   994.60  1003.42  1008.48
                             1051.80  1056.03  1062.66  1089.74  1093.97
                             1094.40  1103.59  1133.73  1151.81  1154.54
                             1157.35  1166.91  1194.59  1195.49  1260.43
                             1276.94  1292.57  1356.34  1356.62  1398.14
                             1463.75  1464.30  1514.42  1538.34  1574.20
                             1575.91  1641.47  1702.31  1704.03  1744.49
                             1745.54  1753.76  1804.17  1806.43  1860.29
                             1905.20  1909.03  1911.84  1913.58  1947.53
                             1965.93  1976.61  2031.60  2047.85  2090.66
                             2100.14  2170.58  2171.79  2197.40  2197.73
                             2273.16  2288.89  2302.24  2328.87  2336.48
                             2349.78  2493.74  2513.51  4578.74  4579.45
                             4604.12  4604.17  4624.58  4624.62  4655.19
                             4655.19  5118.84  5122.42

 Zero-point correction=                           0.264111 (Hartree/Particle)
 Thermal correction to Energy=                    0.284718
 Thermal correction to Enthalpy=                  0.285662
 Thermal correction to Gibbs Free Energy=         0.213563
 Sum of electronic and zero-point Energies=          -1933.827216
 Sum of electronic and thermal Energies=             -1933.806609
 Sum of electronic and thermal Enthalpies=           -1933.805665
 Sum of electronic and thermal Free Energies=        -1933.877764

                     E (Thermal)             CV                S
                      KCal/Mol        Cal/Mol-Kelvin    Cal/Mol-Kelvin
 Total                  178.663             82.678            151.745
 Electronic               0.000              0.000              0.000
 Translational            0.889              2.981             43.865
 Rotational               0.889              2.981             36.373
 Vibrational            176.886             76.716             71.507
 Vibration     1          0.593              1.986              6.708
 Vibration     2          0.594              1.982              5.385
 Vibration     3          0.595              1.977              4.804
 Vibration     4          0.597              1.973              4.430
 Vibration     5          0.599              1.965              3.981
 Vibration     6          0.608              1.937              3.189
 Vibration     7          0.612              1.923              2.936
 Vibration     8          0.618              1.904              2.690
 Vibration     9          0.623              1.886              2.501
 Vibration    10          0.627              1.876              2.401
 Vibration    11          0.639              1.837              2.114
 Vibration    12          0.640              1.832              2.082
 Vibration    13          0.643              1.824              2.033
 Vibration    14          0.651              1.800              1.904
 Vibration    15          0.662              1.766              1.745
 Vibration    16          0.664              1.759              1.713
 Vibration    17          0.673              1.730              1.603
 Vibration    18          0.702              1.646              1.338
 Vibration    19          0.735              1.552              1.117
 Vibration    20          0.752              1.507              1.028
 Vibration    21          0.758              1.492              1.001
 Vibration    22          0.770              1.459              0.943
 Vibration    23          0.815              1.346              0.776
 Vibration    24          0.831              1.307              0.726
 Vibration    25          0.841              1.284              0.697
 Vibration    26          0.861              1.237              0.643
 Vibration    27          0.897              1.158              0.562
 Vibration    28          0.900              1.152              0.555
 Vibration    29          0.908              1.133              0.538
 Vibration    30          0.921              1.106              0.513
 Vibration    31          0.928              1.093              0.502
 Vibration    32          0.951              1.046              0.461
 Vibration    33          0.958              1.031              0.449

 Normal termination of Gaussian 09 at Fri Aug 25 03:27:54 2023.
