 Gaussian 09, Revision A.02,
 Gaussian 09:  EM64L-G09RevA.02 11-Jun-2009

 ---------------------------------------------------------
 # td=(nstates=10) cam-b3lyp/6-31+g(d,p) geom=connectivity
 ---------------------------------------------------------

 -------
 Energy:
 -------
 Symbolic Z-matrix:
 Charge =  0 Multiplicity = 1

                         Standard orientation:
 ---------------------------------------------------------------------
 Center     Atomic      Atomic             Coordinates (Angstroms)
 Number     Number       Type             X           Y           Z
 ---------------------------------------------------------------------
      1          7           0        1.572774    1.426647    0.000154
      2          6           0        0.211608    1.804155    0.000284
      3          6           0        1.755108    0.052801   -0.000043
      4          6           0        0.488716   -0.522410   -0.000031
      5          6           0       -0.488716    0.522410    0.000158
      6          6           0       -1.755108   -0.052799    0.000107
      7          6           0       -0.211611   -1.804155   -0.000198
      8          7           0       -1.572776   -1.426646   -0.000128
      9          8           0       -0.175588    2.971583    0.000439
     10          8           0        0.175583   -2.971583   -0.000396
     11          1           0       -2.347925   -2.082243   -0.000161
     12          1           0        2.347921    2.082247    0.000168
     13          6           0       -4.277623   -0.194490    0.000184
     14          6           0       -5.527948    0.469234    0.000315
     15          6           0       -5.627766    1.863388    0.000503
     16          1           0       -6.592602    2.359772    0.000609
     17          6           0       -4.441888    2.595629    0.000567
     18          1           0       -4.483405    3.680291    0.000713
     19          6           0       -3.191304    1.964808    0.000439
     20          1           0       -2.288805    2.569790    0.000495
     21          6           0       -3.073314    0.563692    0.000244
     22          7           0       -4.360561   -1.581086   -0.000005
     23          6           0        5.527950   -0.469235   -0.000358
     24          6           0        4.277624    0.194491   -0.000198
     25          6           0        3.073315   -0.563691   -0.000213
     26          6           0        3.191304   -1.964807   -0.000391
     27          1           0        2.288805   -2.569788   -0.000408
     28          6           0        4.441887   -2.595628   -0.000549
     29          1           0        4.483403   -3.680290   -0.000681
     30          6           0        5.627765   -1.863388   -0.000531
     31          1           0        6.592600   -2.359774   -0.000660
     32          7           0        4.360564    1.581086   -0.000029
     33          6           0        5.594763    1.976935   -0.000064
     34          1           0        5.888415    3.020338    0.000049
     35          6           0       -5.594761   -1.976935   -0.000005
     36          1           0       -5.888410   -3.020339   -0.000141
     37         16           0        6.816507    0.719567   -0.000297
     38         16           0       -6.816504   -0.719570    0.000199
 ---------------------------------------------------------------------

 SCF Done:  E(RCAM-B3LYP) =  -1933.50631142     A.U. after   16 cycles

 Excitation energies and oscillator strengths:

 Excited State   1:      Singlet-A      2.5970 eV  477.41 nm  f=0.6719  <S**2>=0.000
     103 ->104         0.70285
 This state for optimization and/or second-order correction.
 Copying the excited state density for this state as the 1-particle RhoCI density.

 Excited State   2:      Singlet-A      3.6962 eV  335.44 nm  f=0.0000  <S**2>=0.000
      97 ->104         0.49229
     100 ->104         0.16904
     102 ->104         0.43724

 Excited State   3:      Singlet-A      3.8438 eV  322.56 nm  f=0.0000  <S**2>=0.000
      98 ->104         0.65835
      98 ->106        -0.13039
      98 ->112         0.12158

 Excited State   4:      Singlet-A      3.8851 eV  319.12 nm  f=0.0000  <S**2>=0.000
     103 ->105         0.67391
     103 ->107        -0.13620

 Excited State   5:      Singlet-A      4.2759 eV  289.96 nm  f=0.0431  <S**2>=0.000
      99 ->104         0.29718
     100 ->105        -0.10804
     100 ->107         0.12370
     101 ->104        -0.22120
     102 ->105        -0.16186
     103 ->106         0.51721

 Excited State   6:      Singlet-A      4.3018 eV  288.21 nm  f=0.0000  <S**2>=0.000
      96 ->104         0.62947
      96 ->106        -0.12813
      96 ->112         0.12198
      98 ->105         0.14931

 Excited State   7:      Singlet-A      4.3566 eV  284.59 nm  f=0.0000  <S**2>=0.000
      97 ->104        -0.22018
      99 ->105        -0.15538
      99 ->107         0.10757
     100 ->104         0.42086
     101 ->105         0.15511
     102 ->106         0.13324
     103 ->107        -0.39520

 Excited State   8:      Singlet-A      4.4892 eV  276.18 nm  f=0.5205  <S**2>=0.000
      99 ->104         0.39715
     100 ->105        -0.12291
     101 ->104         0.53282
     102 ->105         0.13612

 Excited State   9:      Singlet-A      4.5537 eV  272.27 nm  f=0.0000  <S**2>=0.000
      97 ->104        -0.33602
      99 ->105         0.10522
     100 ->104        -0.30174
     101 ->105         0.14903
     102 ->104         0.48758

 Excited State  10:      Singlet-A      4.5646 eV  271.62 nm  f=0.1175  <S**2>=0.000
      97 ->105        -0.10488
      99 ->104        -0.37723
     100 ->105         0.14555
     101 ->104         0.28297
     103 ->106         0.43513
     103 ->112        -0.19272

 The electronic state is 1-A.
 Alpha  occ. eigenvalues --  -89.01437 -89.01437 -19.20497 -19.20497 -14.44993
 Alpha  occ. eigenvalues --  -14.44993 -14.44686 -14.44686 -10.37818 -10.37817
 Alpha  occ. eigenvalues --  -10.36149 -10.36149 -10.34474 -10.34473 -10.32977
 Alpha  occ. eigenvalues --  -10.32977 -10.32715 -10.32715 -10.30802 -10.30802
 Alpha  occ. eigenvalues --  -10.30132 -10.30132 -10.28922 -10.28922 -10.28434
 Alpha  occ. eigenvalues --  -10.28433 -10.26686 -10.26643  -8.07495  -8.07495
 Alpha  occ. eigenvalues --   -6.04017  -6.04017  -6.03651  -6.03651  -6.03246
 Alpha  occ. eigenvalues --   -6.03246  -1.12855  -1.12271  -1.08031  -1.08023
 Alpha  occ. eigenvalues --   -1.05591  -1.04201  -0.96001  -0.95991  -0.91462
 Alpha  occ. eigenvalues --   -0.91449  -0.88712  -0.86540  -0.85985  -0.84318
 Alpha  occ. eigenvalues --   -0.83909  -0.80142  -0.77290  -0.74872  -0.72654
 Alpha  occ. eigenvalues --   -0.72062  -0.70551  -0.69078  -0.67942  -0.67567
 Alpha  occ. eigenvalues --   -0.64283  -0.61544  -0.59992  -0.59451  -0.58146
 Alpha  occ. eigenvalues --   -0.58008  -0.57774  -0.56951  -0.55556  -0.54924
 Alpha  occ. eigenvalues --   -0.54679  -0.54118  -0.52363  -0.52334  -0.51619
 Alpha  occ. eigenvalues --   -0.50606  -0.50506  -0.50224  -0.49144  -0.49126
 Alpha  occ. eigenvalues --   -0.48183  -0.47904  -0.45831  -0.45044  -0.44687
 Alpha  occ. eigenvalues --   -0.44634  -0.43701  -0.43112  -0.42652  -0.41808
 Alpha  occ. eigenvalues --   -0.41057  -0.37959  -0.37511  -0.37329  -0.37191
 Alpha  occ. eigenvalues --   -0.34005  -0.32376  -0.32256  -0.31814  -0.31710
 Alpha  occ. eigenvalues --   -0.31637  -0.31089  -0.24024
 Alpha virt. eigenvalues --   -0.07197  -0.02529  -0.00899   0.00439   0.01554
 Alpha virt. eigenvalues --    0.01596   0.02340   0.02476   0.02833   0.04344
 Alpha virt. eigenvalues --    0.04695   0.04715   0.05044   0.05086   0.05165

 Mulliken atomic charges:
              1
     1  N   -0.464996
     2  C    0.563204
     3  C    0.687141
     4  C   -0.228550
     5  C   -0.228550
     6  C    0.687127
     7  C    0.563214
     8  N   -0.464996
     9  O   -0.547885
    10  O   -0.547884
    11  H    0.353139
    12  H    0.353139
    13  C   -0.090111
    14  C   -0.502882
    15  C    0.018128
    16  H    0.150155
    17  C   -0.504462
    18  H    0.149213
    19  C   -0.380713
    20  H    0.191018
    21  C    0.259158
    22  N   -0.109781
    23  C   -0.502848
    24  C   -0.090142
    25  C    0.259148
    26  C   -0.380690
    27  H    0.191018
    28  C   -0.504465
    29  H    0.149213
    30  C    0.018151
    31  H    0.150155
    32  N   -0.109780
    33  C    0.038418
    34  H    0.177895
    35  C    0.038418
    36  H    0.177895
    37  S    0.241893
    38  S    0.241895
 Sum of Mulliken atomic charges =   0.00000

 Dipole moment (field-independent basis, Debye):
    X=              0.0000    Y=              0.0000    Z=             -0.0001  Tot=              0.0001
 Quadrupole moment (field-independent basis, Debye-Ang):
   XX=           -108.4029   YY=           -176.1999   ZZ=           -179.3250
   XY=              4.1488   XZ=             -0.0031   YZ=             -0.0002

 Normal termination of Gaussian 09 at Thu Aug 31 00:59:52 2023.
