 Gaussian 09, Revision A.02,
 Gaussian 09:  EM64L-G09RevA.02 11-Jun-2009

 -----------------------------------------------------------
 # opt=tight freq b3lyp/6-31+g(d,p) nosymm geom=connectivity
 -----------------------------------------------------------

 -------------------
 Title Card Required
 -------------------
 Symbolic Z-matrix:
 Charge = -1 Multiplicity = 2

 SCF Done:  E(UB3LYP) =  -1902.01804974     A.U. after   26 cycles
 SCF Done:  E(UB3LYP) =  -1902.02083415     A.U. after   19 cycles
 SCF Done:  E(UB3LYP) =  -1902.02110944     A.U. after   25 cycles
 SCF Done:  E(UB3LYP) =  -1902.02163309     A.U. after   18 cycles
 SCF Done:  E(UB3LYP) =  -1902.02169023     A.U. after   17 cycles
 SCF Done:  E(UB3LYP) =  -1902.02169282     A.U. after   16 cycles
 SCF Done:  E(UB3LYP) =  -1902.02169942     A.U. after   15 cycles
 SCF Done:  E(UB3LYP) =  -1902.02170057     A.U. after   14 cycles
 SCF Done:  E(UB3LYP) =  -1902.02170117     A.U. after   11 cycles
 SCF Done:  E(UB3LYP) =  -1902.02170125     A.U. after   13 cycles
 SCF Done:  E(UB3LYP) =  -1902.02170125     A.U. after   10 cycles
 SCF Done:  E(UB3LYP) =  -1902.02170126     A.U. after    8 cycles
 SCF Done:  E(UB3LYP) =  -1902.02170126     A.U. after    8 cycles
 SCF Done:  E(UB3LYP) =  -1902.02170126     A.U. after    7 cycles
 Optimization completed.
    -- Stationary point found.
 Normal termination of Gaussian 09 at Thu Sep 14 01:07:21 2023.

 ----------------------------------------------------------------------
 #N Geom=AllCheck Guess=TCheck SCRF=Check GenChk UB3LYP/6-31+G(d,p) Fre
 q
 ----------------------------------------------------------------------

 Title Card Required
 -------------------
 Redundant internal coordinates taken from checkpoint file:
 /home/nathalia.rosa/DPP-SUB/DPP-SUB-4a/ANION/DPP-SUB-4A-ANION.chk
 Charge = -1 Multiplicity = 2

                          Input orientation:
 ---------------------------------------------------------------------
 Center     Atomic      Atomic             Coordinates (Angstroms)
 Number     Number       Type             X           Y           Z
 ---------------------------------------------------------------------
      1          7           0        1.574155    1.419342   -0.216107
      2          6           0        0.216045    1.793662   -0.293978
      3          6           0        1.780512    0.028920   -0.251006
      4          6           0        0.484960   -0.523755   -0.294637
      5          6           0       -0.484907    0.523833   -0.294499
      6          6           0       -1.780457   -0.028852   -0.250970
      7          6           0       -0.215992   -1.793584   -0.294407
      8          7           0       -1.574100   -1.419283   -0.216410
      9          8           0       -0.153148    2.976898   -0.372568
     10          8           0        0.153199   -2.976801   -0.373292
     11          1           0       -2.284185   -2.094754   -0.455485
     12          1           0        2.284235    2.094872   -0.455033
     13          6           0        5.592655   -0.539154   -0.058875
     14          6           0        4.301441    0.129947    0.104871
     15          6           0        3.074136   -0.582663   -0.247244
     16          6           0        3.206326   -1.932739   -0.618143
     17          1           0        2.306259   -2.502860   -0.826889
     18          6           0        4.462977   -2.561063   -0.745213
     19          1           0        4.486567   -3.602271   -1.058055
     20          6           0        5.649776   -1.893131   -0.508347
     21          1           0        6.611408   -2.384145   -0.627727
     22          6           0        4.461349    1.398816    0.643979
     23          1           0        3.706324    2.094477    0.975433
     24          6           0        6.657102    0.267869    0.321691
     25          1           0        7.710647    0.025344    0.301297
     26         16           0        6.121119    1.795976    0.911219
     27          6           0       -4.301376   -0.129972    0.104940
     28          6           0       -5.592597    0.539161   -0.058621
     29          6           0       -5.649734    1.893245   -0.507770
     30          1           0       -6.611371    2.384283   -0.627015
     31          6           0       -4.462943    2.561239   -0.744503
     32          1           0       -4.486545    3.602520   -1.057098
     33          6           0       -3.206287    1.932891   -0.617609
     34          1           0       -2.306226    2.503066   -0.826237
     35          6           0       -3.074083    0.582728   -0.247033
     36          6           0       -6.657033   -0.267957    0.321777
     37          1           0       -7.710579   -0.025433    0.301461
     38          6           0       -4.461267   -1.398968    0.643753
     39          1           0       -3.706230   -2.094702    0.975028
     40         16           0       -6.121028   -1.796200    0.910933
 ---------------------------------------------------------------------

 SCF Done:  E(UB3LYP) =  -1902.02170126     A.U. after    2 cycles

 Alpha  occ. eigenvalues --  -88.83511 -88.83511 -19.01019 -19.01019 -14.26696
 Alpha  occ. eigenvalues --  -14.26696 -10.17775 -10.17774 -10.13397 -10.13397
 Alpha  occ. eigenvalues --  -10.12861 -10.12861 -10.12836 -10.12836 -10.11966
 Alpha  occ. eigenvalues --  -10.11966 -10.11529 -10.11529 -10.10946 -10.10946
 Alpha  occ. eigenvalues --  -10.09722 -10.09722 -10.09623 -10.09623 -10.08418
 Alpha  occ. eigenvalues --  -10.08418 -10.07496 -10.07450  -7.89434  -7.89433
 Alpha  occ. eigenvalues --   -5.85826  -5.85826  -5.85462  -5.85462  -5.85223
 Alpha  occ. eigenvalues --   -5.85223  -0.92360  -0.91818  -0.85218  -0.84050
 Alpha  occ. eigenvalues --   -0.80260  -0.80214  -0.73694  -0.73679  -0.68902
 Alpha  occ. eigenvalues --   -0.68730  -0.68487  -0.64448  -0.64334  -0.63336
 Alpha  occ. eigenvalues --   -0.62130  -0.59189  -0.57233  -0.55807  -0.52531
 Alpha  occ. eigenvalues --   -0.51464  -0.49494  -0.48825  -0.48685  -0.48071
 Alpha  occ. eigenvalues --   -0.44782  -0.43559  -0.42657  -0.42103  -0.39353
 Alpha  occ. eigenvalues --   -0.38685  -0.37382  -0.36612  -0.36583  -0.35419
 Alpha  occ. eigenvalues --   -0.34864  -0.34469  -0.33553  -0.32460  -0.32346
 Alpha  occ. eigenvalues --   -0.31841  -0.31752  -0.31476  -0.31226  -0.31065
 Alpha  occ. eigenvalues --   -0.30980  -0.29679  -0.27138  -0.26842  -0.26824
 Alpha  occ. eigenvalues --   -0.25929  -0.25855  -0.25739  -0.25345  -0.25320
 Alpha  occ. eigenvalues --   -0.24383  -0.22876  -0.22362  -0.18832  -0.18531
 Alpha  occ. eigenvalues --   -0.16197  -0.16175  -0.15750  -0.14916  -0.14234
 Alpha  occ. eigenvalues --   -0.12638  -0.11954  -0.07981  -0.03144
 Alpha virt. eigenvalues --    0.02072   0.04634   0.07629   0.07639   0.08321
 Alpha virt. eigenvalues --    0.08590   0.08795   0.09133   0.09193   0.10747
 Alpha virt. eigenvalues --    0.10842   0.11024   0.11075   0.11160   0.11291

  Beta  occ. eigenvalues --  -88.83495 -88.83495 -19.00904 -19.00904 -14.26701
  Beta  occ. eigenvalues --  -14.26701 -10.17739 -10.17738 -10.13115 -10.13114
  Beta  occ. eigenvalues --  -10.12924 -10.12924 -10.12677 -10.12677 -10.11927
  Beta  occ. eigenvalues --  -10.11927 -10.11602 -10.11602 -10.11042 -10.11042
  Beta  occ. eigenvalues --  -10.09737 -10.09737 -10.09430 -10.09430 -10.08155
  Beta  occ. eigenvalues --  -10.08155 -10.07557 -10.07512  -7.89417  -7.89417
  Beta  occ. eigenvalues --   -5.85818  -5.85818  -5.85455  -5.85455  -5.85167
  Beta  occ. eigenvalues --   -5.85167  -0.92185  -0.91632  -0.85033  -0.83863
  Beta  occ. eigenvalues --   -0.80184  -0.80137  -0.73488  -0.73473  -0.68911
  Beta  occ. eigenvalues --   -0.68491  -0.68268  -0.64308  -0.64200  -0.63136
  Beta  occ. eigenvalues --   -0.61952  -0.58878  -0.56674  -0.55702  -0.52333
  Beta  occ. eigenvalues --   -0.51294  -0.49388  -0.48768  -0.48633  -0.47935
  Beta  occ. eigenvalues --   -0.44689  -0.43442  -0.42552  -0.42074  -0.39162
  Beta  occ. eigenvalues --   -0.38491  -0.37269  -0.36524  -0.36524  -0.35297
  Beta  occ. eigenvalues --   -0.34731  -0.34101  -0.33462  -0.32341  -0.32288
  Beta  occ. eigenvalues --   -0.31779  -0.31664  -0.31344  -0.31075  -0.30862
  Beta  occ. eigenvalues --   -0.30746  -0.29326  -0.27043  -0.26742  -0.26734
  Beta  occ. eigenvalues --   -0.25829  -0.25765  -0.25337  -0.25116  -0.24988
  Beta  occ. eigenvalues --   -0.23936  -0.22123  -0.21583  -0.18386  -0.18105
  Beta  occ. eigenvalues --   -0.15843  -0.15749  -0.15515  -0.14984  -0.14139
  Beta  occ. eigenvalues --   -0.12083  -0.11396  -0.06685
  Beta virt. eigenvalues --    0.01249   0.03118   0.05422   0.07656   0.07659
  Beta virt. eigenvalues --    0.08604   0.08692   0.09083   0.09144   0.09198
  Beta virt. eigenvalues --    0.10909   0.10978   0.11194   0.11199   0.11281

 Mulliken atomic charges:
              1
     1  N   -0.417959
     2  C    0.405813
     3  C    0.337773
     4  C   -0.393501
     5  C   -0.393500
     6  C    0.337771
     7  C    0.405818
     8  N   -0.417957
     9  O   -0.611308
    10  O   -0.611308
    11  H    0.287241
    12  H    0.287241
    13  C    0.200945
    14  C   -0.440279
    15  C    0.045879
    16  C   -0.158142
    17  H    0.167031
    18  C   -0.297489
    19  H    0.109829
    20  C   -0.211835
    21  H    0.101567
    22  C   -0.050308
    23  H    0.165496
    24  C    0.115207
    25  H    0.144039
    26  S   -0.000002
    27  C   -0.440282
    28  C    0.200955
    29  C   -0.211831
    30  H    0.101567
    31  C   -0.297492
    32  H    0.109829
    33  C   -0.158138
    34  H    0.167031
    35  C    0.045878
    36  C    0.115199
    37  H    0.144039
    38  C   -0.050312
    39  H    0.165497
    40  S    0.000000
 Sum of Mulliken atomic charges =  -1.00000

 Dipole moment (field-independent basis, Debye):
    X=             -0.0001    Y=             -0.0001    Z=              0.5123  Tot=              0.5123
 Quadrupole moment (field-independent basis, Debye-Ang):
   XX=           -231.1976   YY=           -210.3804   ZZ=           -187.3838
   XY=              4.5734   XZ=              0.0011   YZ=             -0.0029

  Exact polarizability:1225.243 -69.574 383.008  -0.023   0.022 185.156
 Approx polarizability:1998.177-218.056 764.503  -0.045   0.057 308.272

                     1                      2                      3
                     A                      A                      A
 Frequencies --    20.2915                36.0628                46.9812
 Red. masses --    10.6641                 6.0274                 8.5476
 Frc consts  --     0.0026                 0.0046                 0.0111
 IR Inten    --     0.5827                 0.2860                 0.4893

                     4                      5                      6
                     A                      A                      A
 Frequencies --    52.4587                81.2617                95.4749
 Red. masses --     7.5282                 6.3398                 6.5707
 Frc consts  --     0.0122                 0.0247                 0.0353
 IR Inten    --     2.2424                 0.2031                 0.4806

                     7                      8                      9
                     A                      A                      A
 Frequencies --   123.3022               154.0453               158.3823
 Red. masses --    11.8258                 6.9292                 6.5138
 Frc consts  --     0.1059                 0.0969                 0.0963
 IR Inten    --     3.9892                 0.3117                 0.9640

                    10                     11                     12
                     A                      A                      A
 Frequencies --   161.0301               184.7226               190.3374
 Red. masses --     8.4019                 8.8377                 6.4796
 Frc consts  --     0.1284                 0.1777                 0.1383
 IR Inten    --     0.0060                 1.6254                 1.8936

                    13                     14                     15
                     A                      A                      A
 Frequencies --   218.3742               238.5569               249.2637
 Red. masses --     7.6071                 5.4670                 5.1543
 Frc consts  --     0.2137                 0.1833                 0.1887
 IR Inten    --    11.1926                 0.0694                 2.5552

                    16                     17                     18
                     A                      A                      A
 Frequencies --   258.6880               267.7655               304.2917
 Red. masses --     7.4810                 7.2696                 8.6730
 Frc consts  --     0.2950                 0.3071                 0.4732
 IR Inten    --     5.8179                 0.2832                 0.0296

                    19                     20                     21
                     A                      A                      A
 Frequencies --   350.8494               360.7274               399.7478
 Red. masses --     8.0070                 8.2598                 5.9766
 Frc consts  --     0.5807                 0.6333                 0.5627
 IR Inten    --    54.1619                 6.7529                 0.2435

                    22                     23                     24
                     A                      A                      A
 Frequencies --   423.5153               433.4351               443.9111
 Red. masses --     5.9764                 5.5980                 5.4208
 Frc consts  --     0.6316                 0.6196                 0.6294
 IR Inten    --     0.1053                29.1340                43.1734

                    25                     26                     27
                     A                      A                      A
 Frequencies --   447.9447               492.6499               497.7309
 Red. masses --     9.2489                 9.4407                 2.2142
 Frc consts  --     1.0934                 1.3500                 0.3232
 IR Inten    --     1.1273                86.2579                73.6450

                    28                     29                     30
                     A                      A                      A
 Frequencies --   515.7878               531.9919               543.8518
 Red. masses --     4.5036                 1.5264                 2.4422
 Frc consts  --     0.7059                 0.2545                 0.4256
 IR Inten    --     8.9806                 4.8449                22.3762

                    31                     32                     33
                     A                      A                      A
 Frequencies --   544.0283               555.3468               577.4832
 Red. masses --     3.8544                 2.2080                 7.1171
 Frc consts  --     0.6721                 0.4012                 1.3984
 IR Inten    --     0.0169                24.6457                 0.1244

                    34                     35                     36
                     A                      A                      A
 Frequencies --   578.0043               582.6364               618.0177
 Red. masses --     5.2459                 5.0611                 1.5244
 Frc consts  --     1.0326                 1.0122                 0.3431
 IR Inten    --     2.0356                 2.7235                18.3018

                    37                     38                     39
                     A                      A                      A
 Frequencies --   625.2683               637.4617               652.7892
 Red. masses --     1.2164                 3.0621                 4.4379
 Frc consts  --     0.2802                 0.7331                 1.1142
 IR Inten    --     0.5249                 0.0020                17.0368

                    40                     41                     42
                     A                      A                      A
 Frequencies --   673.3060               674.0126               682.5077
 Red. masses --     7.5352                 6.4851                 6.5202
 Frc consts  --     2.0127                 1.7358                 1.7895
 IR Inten    --     1.2216                47.9504                 0.2254

                    43                     44                     45
                     A                      A                      A
 Frequencies --   689.1411               717.0657               720.1810
 Red. masses --     4.7607                 1.4216                 1.4803
 Frc consts  --     1.3321                 0.4307                 0.4524
 IR Inten    --     2.3902                13.2967                10.5300

                    46                     47                     48
                     A                      A                      A
 Frequencies --   734.8922               741.3392               774.0190
 Red. masses --     6.5122                 3.3193                 1.9614
 Frc consts  --     2.0722                 1.0748                 0.6923
 IR Inten    --    39.3256                 8.5915                21.7589

                    49                     50                     51
                     A                      A                      A
 Frequencies --   775.3037               775.8827               785.2128
 Red. masses --     1.3733                 3.0660                 6.7406
 Frc consts  --     0.4864                 1.0875                 2.4486
 IR Inten    --   130.0390                46.7981                45.3390

                    52                     53                     54
                     A                      A                      A
 Frequencies --   794.3026               795.5332               812.4470
 Red. masses --     5.1851                 5.3374                 5.2572
 Frc consts  --     1.9274                 1.9902                 2.0445
 IR Inten    --    15.2498                 1.8853                 0.0003

                    55                     56                     57
                     A                      A                      A
 Frequencies --   850.8562               870.5247               872.8059
 Red. masses --     5.7791                 4.9153                 4.3033
 Frc consts  --     2.4650                 2.1946                 1.9315
 IR Inten    --    47.4692                 4.7249               194.0053

                    58                     59                     60
                     A                      A                      A
 Frequencies --   881.6236               883.1014               886.9059
 Red. masses --     1.7360                 1.3804                 2.6473
 Frc consts  --     0.7950                 0.6343                 1.2269
 IR Inten    --    14.7849                 9.3406                 1.0047

                    61                     62                     63
                     A                      A                      A
 Frequencies --   900.7414               906.7783               956.2726
 Red. masses --     4.4139                 5.2257                 5.4189
 Frc consts  --     2.1099                 2.5316                 2.9196
 IR Inten    --    10.6586                 0.3522                 4.8288

                    64                     65                     66
                     A                      A                      A
 Frequencies --   969.2673               969.4423              1025.7332
 Red. masses --     1.3054                 1.3274                 4.2481
 Frc consts  --     0.7225                 0.7350                 2.6334
 IR Inten    --     1.1664                 7.3275                 0.0040

                    67                     68                     69
                     A                      A                      A
 Frequencies --  1078.6387              1079.3676              1110.9187
 Red. masses --     2.3031                 2.3394                 3.0749
 Frc consts  --     1.5787                 1.6058                 2.2358
 IR Inten    --    21.2735                 0.1438                 0.2376

                    70                     71                     72
                     A                      A                      A
 Frequencies --  1122.9933              1141.6894              1156.9446
 Red. masses --     2.1417                 4.3331                 2.5265
 Frc consts  --     1.5914                 3.3277                 1.9925
 IR Inten    --     0.7647               385.1955               188.5853

                    73                     74                     75
                     A                      A                      A
 Frequencies --  1172.2757              1174.5569              1196.4212
 Red. masses --     1.2458                 1.3866                 1.4259
 Frc consts  --     1.0087                 1.1271                 1.2026
 IR Inten    --     0.2455                21.6333                 0.0446

                    76                     77                     78
                     A                      A                      A
 Frequencies --  1205.6497              1222.3670              1224.9535
 Red. masses --     1.5432                 1.5391                 1.5234
 Frc consts  --     1.3217                 1.3549                 1.3468
 IR Inten    --    88.4693                 0.0493                10.7484

                    79                     80                     81
                     A                      A                      A
 Frequencies --  1268.1459              1296.5661              1322.9000
 Red. masses --     4.6817                 5.8553                 1.8285
 Frc consts  --     4.4360                 5.7995                 1.8854
 IR Inten    --     0.0893              1916.2666                 0.1106

                    82                     83                     84
                     A                      A                      A
 Frequencies --  1325.7457              1347.9689              1367.4695
 Red. masses --     2.1290                 5.0165                 5.2275
 Frc consts  --     2.2047                 5.3705                 5.7594
 IR Inten    --   285.2630                 0.4813                 0.5664

                    85                     86                     87
                     A                      A                      A
 Frequencies --  1368.5075              1386.1513              1396.2755
 Red. masses --     3.4521                 6.0528                 2.1503
 Frc consts  --     3.8092                 6.8521                 2.4700
 IR Inten    --   220.9981                 0.0069                18.7836

                    88                     89                     90
                     A                      A                      A
 Frequencies --  1397.0124              1417.7475              1421.8596
 Red. masses --     2.1700                 3.6647                 4.0891
 Frc consts  --     2.4952                 4.3400                 4.8707
 IR Inten    --     0.0168                44.4607                 0.4681

                    91                     92                     93
                     A                      A                      A
 Frequencies --  1446.9240              1454.4753              1506.1808
 Red. masses --     4.2817                 4.4514                 4.5481
 Frc consts  --     5.2815                 5.5483                 6.0790
 IR Inten    --   560.9764                 0.0225              1388.8545

                    94                     95                     96
                     A                      A                      A
 Frequencies --  1531.5484              1533.2832              1541.7716
 Red. masses --     3.8917                 3.7591                 4.5426
 Frc consts  --     5.3784                 5.2069                 6.3620
 IR Inten    --    60.6209                 0.0024                 0.0324

                    97                     98                     99
                     A                      A                      A
 Frequencies --  1548.6599              1561.0773              1605.2822
 Red. masses --     5.6073                 7.9744                 5.0432
 Frc consts  --     7.9235                11.4498                 7.6570
 IR Inten    --   185.4706                 0.4080                12.0881

                   100                    101                    102
                     A                      A                      A
 Frequencies --  1606.1829              1694.3918              1695.6700
 Red. masses --     4.9531                 8.3448                 9.4709
 Frc consts  --     7.5286                14.1155                16.0445
 IR Inten    --     0.8321              1051.6152                 6.3619

                   103                    104                    105
                     A                      A                      A
 Frequencies --  3166.0162              3166.1379              3187.0185
 Red. masses --     1.0855                 1.0856                 1.0926
 Frc consts  --     6.4110                 6.4118                 6.5386
 IR Inten    --    31.9247                 1.5853               113.0998

                   106                    107                    108
                     A                      A                      A
 Frequencies --  3187.1228              3196.1004              3196.2300
 Red. masses --     1.0926                 1.0946                 1.0946
 Frc consts  --     6.5389                 6.5877                 6.5882
 IR Inten    --     3.5609                 5.4457                 1.6989

                   109                    110                    111
                     A                      A                      A
 Frequencies --  3254.7295              3254.7312              3282.7392
 Red. masses --     1.0923                 1.0923                 1.0926
 Frc consts  --     6.8172                 6.8172                 6.9374
 IR Inten    --     1.4936                 1.9313                 0.8056

                   112                    113                    114
                     A                      A                      A
 Frequencies --  3282.7449              3657.7610              3658.0923
 Red. masses --     1.0926                 1.0785                 1.0786
 Frc consts  --     6.9375                 8.5015                 8.5039
 IR Inten    --     1.1482                41.1641                 2.4405

 - Thermochemistry -
 -------------------
 Temperature   298.150 Kelvin.  Pressure   1.00000 Atm.
 Atom     1 has atomic number  7 and mass  14.00307

 Molecular mass:   400.03402 amu.
 Principal axes and moments of inertia in atomic units:
                           1         2         3
     Eigenvalues --  4311.03112********************
           X            0.99983  -0.01869   0.00001
           Y            0.01869   0.99983  -0.00012
           Z           -0.00001   0.00012   1.00000
 This molecule is an asymmetric top.
 Rotational symmetry number  1.
 Warning -- assumption of classical behavior for rotation
           may cause significant error
 Rotational temperatures (Kelvin)      0.02009     0.00327     0.00289
 Rotational constants (GHZ):           0.41863     0.06815     0.06020
 Zero-point vibrational energy     742831.1 (Joules/Mol)
                                  177.54090 (Kcal/Mol)
 Warning -- explicit consideration of  36 degrees of freedom as
           vibrations may cause significant error
 Vibrational temperatures:     29.19    51.89    67.60    75.48   116.92
          (Kelvin)            137.37   177.40   221.64   227.88   231.69
                              265.77   273.85   314.19   343.23   358.63
                              372.19   385.25   437.81   504.79   519.01
                              575.15   609.34   623.62   638.69   644.49
                              708.81   716.12   742.10   765.42   782.48
                              782.73   799.02   830.87   831.62   838.28
                              889.19   899.62   917.16   939.22   968.74
                              969.75   981.98   991.52  1031.70  1036.18
                             1057.34  1066.62  1113.64  1115.49  1116.32
                             1129.74  1142.82  1144.59  1168.93  1224.19
                             1252.49  1255.77  1268.46  1270.58  1276.06
                             1295.96  1304.65  1375.86  1394.56  1394.81
                             1475.80  1551.92  1552.97  1598.36  1615.73
                             1642.63  1664.58  1686.64  1689.92  1721.38
                             1734.66  1758.71  1762.43  1824.58  1865.47
                             1903.36  1907.45  1939.42  1967.48  1968.97
                             1994.36  2008.93  2009.99  2039.82  2045.74
                             2081.80  2092.66  2167.06  2203.55  2206.05
                             2218.26  2228.17  2246.04  2309.64  2310.94
                             2437.85  2439.69  4555.19  4555.36  4585.40
                             4585.55  4598.47  4598.66  4682.82  4682.83
                             4723.12  4723.13  5262.70  5263.17

 Zero-point correction=                           0.282929 (Hartree/Particle)
 Thermal correction to Energy=                    0.304463
 Thermal correction to Enthalpy=                  0.305407
 Thermal correction to Gibbs Free Energy=         0.230961
 Sum of electronic and zero-point Energies=          -1901.738772
 Sum of electronic and thermal Energies=             -1901.717238
 Sum of electronic and thermal Enthalpies=           -1901.716294
 Sum of electronic and thermal Free Energies=        -1901.790740

                     E (Thermal)             CV                S
                      KCal/Mol        Cal/Mol-Kelvin    Cal/Mol-Kelvin
 Total                  191.053             87.365            156.684
 Electronic               0.000              0.000              1.377
 Translational            0.889              2.981             43.851
 Rotational               0.889              2.981             36.480
 Vibrational            189.276             81.403             74.977
 Vibration     1          0.593              1.986              6.605
 Vibration     2          0.594              1.982              5.464
 Vibration     3          0.595              1.979              4.941
 Vibration     4          0.596              1.977              4.722
 Vibration     5          0.600              1.962              3.860
 Vibration     6          0.603              1.952              3.545
 Vibration     7          0.610              1.930              3.048
 Vibration     8          0.620              1.898              2.622
 Vibration     9          0.621              1.893              2.569
 Vibration    10          0.622              1.890              2.538
 Vibration    11          0.631              1.861              2.280
 Vibration    12          0.634              1.853              2.225
 Vibration    13          0.646              1.813              1.973
 Vibration    14          0.657              1.782              1.814
 Vibration    15          0.662              1.764              1.736
 Vibration    16          0.668              1.748              1.671
 Vibration    17          0.673              1.732              1.611
 Vibration    18          0.695              1.666              1.393
 Vibration    19          0.728              1.574              1.162
 Vibration    20          0.735              1.553              1.119
 Vibration    21          0.766              1.471              0.964
 Vibration    22          0.786              1.419              0.880
 Vibration    23          0.794              1.397              0.848
 Vibration    24          0.803              1.374              0.814
 Vibration    25          0.807              1.365              0.802
 Vibration    26          0.848              1.266              0.677
 Vibration    27          0.853              1.255              0.664
 Vibration    28          0.871              1.215              0.620
 Vibration    29          0.887              1.179              0.583
 Vibration    30          0.899              1.153              0.557
 Vibration    31          0.899              1.153              0.557
 Vibration    32          0.911              1.128              0.533
 Vibration    33          0.934              1.080              0.490
 Vibration    34          0.935              1.079              0.489
 Vibration    35          0.939              1.069              0.481
 Vibration    36          0.978              0.994              0.420

 Normal termination of Gaussian 09 at Thu Sep 14 18:17:37 2023.
