 Gaussian 09, Revision A.02,
 Gaussian 09:  EM64L-G09RevA.02 11-Jun-2009

 -----------------------------------------------------------
 # opt=tight freq b3lyp/6-31+g(d,p) nosymm geom=connectivity
 -----------------------------------------------------------

 -------------------
 Title Card Required
 -------------------
 Symbolic Z-matrix:
 Charge =  1 Multiplicity = 2

 SCF Done:  E(UB3LYP) =  -1901.71658908     A.U. after   25 cycles
 SCF Done:  E(UB3LYP) =  -1901.71658908     A.U. after    7 cycles
 SCF Done:  E(UB3LYP) =  -1901.71658908     A.U. after    7 cycles
 Optimization completed.
    -- Stationary point found.
 Normal termination of Gaussian 09 at Wed Sep 13 14:33:05 2023.

 ----------------------------------------------------------------------
 #N Geom=AllCheck Guess=TCheck SCRF=Check GenChk UB3LYP/6-31+G(d,p) Fre
 q
 ----------------------------------------------------------------------

 Title Card Required
 -------------------
 Redundant internal coordinates taken from checkpoint file:
 /home/nathalia.rosa/DPP-SUB/DPP-SUB-4a/CATION/DPP-SUB-4A-CATION.chk
 Charge =  1 Multiplicity = 2

                          Input orientation:
 ---------------------------------------------------------------------
 Center     Atomic      Atomic             Coordinates (Angstroms)
 Number     Number       Type             X           Y           Z
 ---------------------------------------------------------------------
      1          7           0        1.595677    1.416448   -0.188337
      2          6           0        0.226982    1.798708   -0.260708
      3          6           0        1.784668    0.052478   -0.219410
      4          6           0        0.476507   -0.511316   -0.279157
      5          6           0       -0.476508    0.511378   -0.279030
      6          6           0       -1.784667   -0.052429   -0.219386
      7          6           0       -0.226983   -1.798650   -0.261116
      8          7           0       -1.595676   -1.416406   -0.188627
      9          8           0       -0.150730    2.955751   -0.316450
     10          8           0        0.150729   -2.955680   -0.317131
     11          1           0       -2.324466   -2.100273   -0.341394
     12          1           0        2.324465    2.100348   -0.340959
     13          6           0        5.555509   -0.607039   -0.034899
     14          6           0        4.300211    0.106818    0.150173
     15          6           0        3.064163   -0.579240   -0.192153
     16          6           0        3.143381   -1.930299   -0.579824
     17          1           0        2.227714   -2.472596   -0.791332
     18          6           0        4.369231   -2.601749   -0.732015
     19          1           0        4.365724   -3.636341   -1.056992
     20          6           0        5.565811   -1.950885   -0.490507
     21          1           0        6.512698   -2.464976   -0.625901
     22          6           0        4.520174    1.365526    0.689821
     23          1           0        3.811538    2.102118    1.038030
     24          6           0        6.660641    0.150816    0.339931
     25          1           0        7.702662   -0.137157    0.303416
     26         16           0        6.197796    1.680165    0.935989
     27          6           0       -4.300204   -0.106853    0.150230
     28          6           0       -5.555505    0.607047   -0.034661
     29          6           0       -5.565815    1.950996   -0.489961
     30          1           0       -6.512704    2.465119   -0.625222
     31          6           0       -4.369239    2.601916   -0.731340
     32          1           0       -4.365737    3.636582   -1.056081
     33          6           0       -3.143386    1.930430   -0.579323
     34          1           0       -2.227723    2.472776   -0.790720
     35          6           0       -3.064162    0.579283   -0.191962
     36          6           0       -6.660631   -0.150893    0.340015
     37          1           0       -7.702653    0.137089    0.303583
     38          6           0       -4.520159   -1.365682    0.689596
     39          1           0       -3.811519   -2.102352    1.037629
     40         16           0       -6.197778   -1.680376    0.935721
 ---------------------------------------------------------------------

 SCF Done:  E(UB3LYP) =  -1901.71658908     A.U. after    2 cycles

 Alpha  occ. eigenvalues --  -89.05032 -89.05032 -19.27396 -19.27396 -14.52106
 Alpha  occ. eigenvalues --  -14.52106 -10.43845 -10.43845 -10.40876 -10.40876
 Alpha  occ. eigenvalues --  -10.35401 -10.35401 -10.35022 -10.35022 -10.34853
 Alpha  occ. eigenvalues --  -10.34853 -10.34465 -10.34410 -10.34241 -10.34241
 Alpha  occ. eigenvalues --  -10.34094 -10.34094 -10.33802 -10.33802 -10.33420
 Alpha  occ. eigenvalues --  -10.33420 -10.32155 -10.32155  -8.10901  -8.10900
 Alpha  occ. eigenvalues --   -6.07286  -6.07286  -6.06887  -6.06887  -6.06709
 Alpha  occ. eigenvalues --   -6.06709  -1.19061  -1.18587  -1.11824  -1.10374
 Alpha  occ. eigenvalues --   -1.02765  -1.02735  -0.97310  -0.97256  -0.95225
 Alpha  occ. eigenvalues --   -0.92605  -0.92132  -0.87251  -0.86983  -0.86819
 Alpha  occ. eigenvalues --   -0.85156  -0.82978  -0.81358  -0.81180  -0.76347
 Alpha  occ. eigenvalues --   -0.74847  -0.73087  -0.71979  -0.71334  -0.70655
 Alpha  occ. eigenvalues --   -0.69219  -0.67965  -0.66710  -0.65738  -0.62930
 Alpha  occ. eigenvalues --   -0.62084  -0.61754  -0.60396  -0.60387  -0.59864
 Alpha  occ. eigenvalues --   -0.59337  -0.58832  -0.57733  -0.56493  -0.56386
 Alpha  occ. eigenvalues --   -0.56222  -0.55660  -0.54678  -0.53764  -0.53685
 Alpha  occ. eigenvalues --   -0.53372  -0.53302  -0.52587  -0.50105  -0.49458
 Alpha  occ. eigenvalues --   -0.49316  -0.48916  -0.48801  -0.48506  -0.47332
 Alpha  occ. eigenvalues --   -0.47298  -0.46263  -0.46012  -0.42128  -0.41783
 Alpha  occ. eigenvalues --   -0.41409  -0.41174  -0.39815  -0.37907  -0.37879
 Alpha  occ. eigenvalues --   -0.35819  -0.34452  -0.31648
 Alpha virt. eigenvalues --   -0.23919  -0.20048  -0.17541  -0.14368  -0.11135
 Alpha virt. eigenvalues --   -0.11119  -0.10805  -0.10306  -0.10181  -0.09946
 Alpha virt. eigenvalues --   -0.09577  -0.08830  -0.07916  -0.07637  -0.07465

  Beta  occ. eigenvalues --  -89.05043 -89.05043 -19.27157 -19.27157 -14.52124
  Beta  occ. eigenvalues --  -14.52124 -10.43852 -10.43852 -10.40790 -10.40790
  Beta  occ. eigenvalues --  -10.35389 -10.35389 -10.34898 -10.34898 -10.34805
  Beta  occ. eigenvalues --  -10.34805 -10.34275 -10.34249 -10.34249 -10.34218
  Beta  occ. eigenvalues --  -10.33923 -10.33923 -10.33671 -10.33671 -10.33463
  Beta  occ. eigenvalues --  -10.33463 -10.32202 -10.32202  -8.10911  -8.10911
  Beta  occ. eigenvalues --   -6.07297  -6.07297  -6.06897  -6.06897  -6.06736
  Beta  occ. eigenvalues --   -6.06736  -1.18728  -1.18238  -1.11572  -1.10237
  Beta  occ. eigenvalues --   -1.02673  -1.02643  -0.97124  -0.97077  -0.94897
  Beta  occ. eigenvalues --   -0.92373  -0.91950  -0.87143  -0.86952  -0.86565
  Beta  occ. eigenvalues --   -0.84993  -0.82611  -0.81038  -0.81024  -0.76120
  Beta  occ. eigenvalues --   -0.74720  -0.72964  -0.71883  -0.71230  -0.70542
  Beta  occ. eigenvalues --   -0.69089  -0.67879  -0.66601  -0.65657  -0.62781
  Beta  occ. eigenvalues --   -0.61931  -0.61630  -0.60308  -0.59769  -0.59736
  Beta  occ. eigenvalues --   -0.59198  -0.58695  -0.57626  -0.56264  -0.56196
  Beta  occ. eigenvalues --   -0.55911  -0.55595  -0.54614  -0.53523  -0.53468
  Beta  occ. eigenvalues --   -0.53189  -0.53092  -0.52407  -0.49401  -0.49216
  Beta  occ. eigenvalues --   -0.49214  -0.48780  -0.48750  -0.47929  -0.47308
  Beta  occ. eigenvalues --   -0.47258  -0.45572  -0.45457  -0.41265  -0.41158
  Beta  occ. eigenvalues --   -0.41125  -0.40442  -0.39553  -0.37885  -0.37846
  Beta  occ. eigenvalues --   -0.34668  -0.33511
  Beta virt. eigenvalues --   -0.27434  -0.22566  -0.19158  -0.16876  -0.13786
  Beta virt. eigenvalues --   -0.10864  -0.10796  -0.10318  -0.10223  -0.09958
  Beta virt. eigenvalues --   -0.09693  -0.09520  -0.08768  -0.07887  -0.07618

 Mulliken atomic charges:
              1
     1  N   -0.371226
     2  C    0.343112
     3  C    0.313617
     4  C   -0.106165
     5  C   -0.106159
     6  C    0.313623
     7  C    0.343116
     8  N   -0.371227
     9  O   -0.472059
    10  O   -0.472059
    11  H    0.316476
    12  H    0.316476
    13  C    0.142745
    14  C   -0.521065
    15  C    0.085668
    16  C   -0.140081
    17  H    0.177446
    18  C   -0.292198
    19  H    0.167360
    20  C   -0.001431
    21  H    0.167303
    22  C    0.004574
    23  H    0.177830
    24  C    0.186455
    25  H    0.199844
    26  S    0.121785
    27  C   -0.521067
    28  C    0.142756
    29  C   -0.001423
    30  H    0.167303
    31  C   -0.292199
    32  H    0.167360
    33  C   -0.140080
    34  H    0.177446
    35  C    0.085667
    36  C    0.186443
    37  H    0.199845
    38  C    0.004570
    39  H    0.177831
    40  S    0.121786
 Sum of Mulliken atomic charges =   1.00000

 Dipole moment (field-independent basis, Debye):
    X=              0.0000    Y=              0.0000    Z=             -0.3549  Tot=              0.3549
 Quadrupole moment (field-independent basis, Debye-Ang):
   XX=            -13.8051   YY=           -157.9545   ZZ=           -172.1426
   XY=             -7.6054   XZ=             -0.0023   YZ=              0.0017

  Exact polarizability:1089.057 -52.944 351.683  -0.013   0.021 161.365
 Approx polarizability:1618.741-146.908 745.165  -0.029   0.055 276.420

                     1                      2                      3
                     A                      A                      A
 Frequencies --    18.6872                35.1410                46.5653
 Red. masses --    10.7688                 5.8341                 8.7335
 Frc consts  --     0.0022                 0.0042                 0.0112
 IR Inten    --     0.3457                 1.5794                 0.7013

                     4                      5                      6
                     A                      A                      A
 Frequencies --    51.4912                80.1963                93.4818
 Red. masses --     7.0817                 6.2973                 6.4128
 Frc consts  --     0.0111                 0.0239                 0.0330
 IR Inten    --     0.2908                 0.2093                 0.2833

                     7                      8                      9
                     A                      A                      A
 Frequencies --   118.3195               155.2940               159.6242
 Red. masses --    12.0228                 6.9276                 6.2067
 Frc consts  --     0.0992                 0.0984                 0.0932
 IR Inten    --     3.4009                 0.0343                 0.4747

                    10                     11                     12
                     A                      A                      A
 Frequencies --   161.6771               184.7440               184.7479
 Red. masses --     8.0506                 8.1525                 7.5900
 Frc consts  --     0.1240                 0.1639                 0.1526
 IR Inten    --     0.0053                 3.9667                 3.0598

                    13                     14                     15
                     A                      A                      A
 Frequencies --   215.6498               242.0819               247.0753
 Red. masses --     8.9279                 6.7696                 5.8899
 Frc consts  --     0.2446                 0.2337                 0.2118
 IR Inten    --     3.8731                 4.6578                 0.3439

                    16                     17                     18
                     A                      A                      A
 Frequencies --   250.6675               278.2260               312.3965
 Red. masses --     4.4251                 5.9588                 8.4630
 Frc consts  --     0.1638                 0.2718                 0.4866
 IR Inten    --     0.0329                 0.3609                 1.7549

                    19                     20                     21
                     A                      A                      A
 Frequencies --   353.8744               379.8626               400.7472
 Red. masses --     7.9284                 7.3997                 5.8949
 Frc consts  --     0.5850                 0.6291                 0.5578
 IR Inten    --     7.0777                15.2875                 0.2400

                    22                     23                     24
                     A                      A                      A
 Frequencies --   437.4475               438.4502               455.6683
 Red. masses --     5.5257                 6.3009                 8.7771
 Frc consts  --     0.6230                 0.7137                 1.0737
 IR Inten    --     0.7050                 6.9265                 0.1124

                    25                     26                     27
                     A                      A                      A
 Frequencies --   461.4212               502.2686               502.5539
 Red. masses --     5.1996                 3.6633                 9.8113
 Frc consts  --     0.6523                 0.5445                 1.4600
 IR Inten    --     3.6836                27.1671                 8.2690

                    28                     29                     30
                     A                      A                      A
 Frequencies --   520.5982               526.8522               548.8211
 Red. masses --     3.1161                 6.1681                 2.4275
 Frc consts  --     0.4976                 1.0087                 0.4308
 IR Inten    --    22.2867                10.6953                30.1418

                    31                     32                     33
                     A                      A                      A
 Frequencies --   565.3602               565.5318               576.8427
 Red. masses --     1.8253                 1.8834                 4.4286
 Frc consts  --     0.3437                 0.3549                 0.8682
 IR Inten    --    52.4318                 1.4195                12.1850

                    34                     35                     36
                     A                      A                      A
 Frequencies --   580.3486               589.7706               637.2099
 Red. masses --     5.0543                 2.2478                 4.4106
 Frc consts  --     1.0030                 0.4607                 1.0552
 IR Inten    --    12.7296                24.7939                 1.4296

                    37                     38                     39
                     A                      A                      A
 Frequencies --   670.8099               673.2664               677.2076
 Red. masses --     6.6478                 5.5377                 5.5085
 Frc consts  --     1.7625                 1.4789                 1.4884
 IR Inten    --     2.0509                 0.3932                 3.7271

                    40                     41                     42
                     A                      A                      A
 Frequencies --   684.1363               694.0572               702.6686
 Red. masses --     4.0960                 1.7642                 4.1004
 Frc consts  --     1.1295                 0.5007                 1.1928
 IR Inten    --     7.8121                 6.8734                 3.0640

                    43                     44                     45
                     A                      A                      A
 Frequencies --   702.8489               734.2406               737.7522
 Red. masses --     1.7549                 3.5111                 7.7787
 Frc consts  --     0.5108                 1.1152                 2.4945
 IR Inten    --     1.2995                28.6744                20.8027

                    46                     47                     48
                     A                      A                      A
 Frequencies --   752.1917               752.9767               775.4895
 Red. masses --     1.9998                 1.9485                 6.6871
 Frc consts  --     0.6667                 0.6509                 2.3694
 IR Inten    --     1.6256                22.6061                12.5804

                    49                     50                     51
                     A                      A                      A
 Frequencies --   787.1172               792.0085               793.0515
 Red. masses --     4.1490                 1.4987                 1.8179
 Frc consts  --     1.5145                 0.5539                 0.6736
 IR Inten    --     7.7404                58.9470                19.1142

                    52                     53                     54
                     A                      A                      A
 Frequencies --   818.7472               833.9938               834.4015
 Red. masses --     5.3529                 1.7561                 1.7863
 Frc consts  --     2.1142                 0.7197                 0.7327
 IR Inten    --     0.6199                82.5129                 8.4768

                    55                     56                     57
                     A                      A                      A
 Frequencies --   855.4106               878.5452               898.0350
 Red. masses --     5.6517                 5.8742                 4.3134
 Frc consts  --     2.4366                 2.6713                 2.0495
 IR Inten    --     3.3991                 0.3677                63.6709

                    58                     59                     60
                     A                      A                      A
 Frequencies --   898.4337               899.8612               906.1817
 Red. masses --     4.1826                 4.4548                 4.6992
 Frc consts  --     1.9891                 2.1254                 2.2736
 IR Inten    --     5.5168                27.0564                 1.7717

                    61                     62                     63
                     A                      A                      A
 Frequencies --   950.9974               969.1426               969.3952
 Red. masses --     6.0740                 1.4030                 1.4049
 Frc consts  --     3.2366                 0.7764                 0.7779
 IR Inten    --    24.0105                 2.1169                 0.1017

                    64                     65                     66
                     A                      A                      A
 Frequencies --  1002.9292              1011.1971              1013.0916
 Red. masses --     3.1938                 1.3744                 1.5497
 Frc consts  --     1.8928                 0.8280                 0.9371
 IR Inten    --     0.0418                 0.4205                 0.0737

                    67                     68                     69
                     A                      A                      A
 Frequencies --  1076.5478              1098.5087              1099.5265
 Red. masses --     4.9550                 2.8673                 2.3203
 Frc consts  --     3.3834                 2.0386                 1.6528
 IR Inten    --    84.6479                 1.7678                 0.1981

                    70                     71                     72
                     A                      A                      A
 Frequencies --  1113.6950              1132.7030              1187.0536
 Red. masses --     2.9193                 2.2342                 1.7642
 Frc consts  --     2.1334                 1.6889                 1.4646
 IR Inten    --    35.7871                 1.7191                29.6929

                    73                     74                     75
                     A                      A                      A
 Frequencies --  1189.5143              1191.0119              1215.5293
 Red. masses --     1.2831                 1.4448                 1.4187
 Frc consts  --     1.0697                 1.2075                 1.2350
 IR Inten    --     1.2336                57.7988                 0.5027

                    76                     77                     78
                     A                      A                      A
 Frequencies --  1231.5416              1239.4801              1239.7704
 Red. masses --     1.6457                 1.5264                 1.4984
 Frc consts  --     1.4707                 1.3816                 1.3569
 IR Inten    --    59.9985                 5.3697                35.6685

                    79                     80                     81
                     A                      A                      A
 Frequencies --  1288.2849              1329.2293              1331.0237
 Red. masses --     3.4384                 1.8584                 1.9692
 Frc consts  --     3.3623                 1.9346                 2.0554
 IR Inten    --     0.3284                 0.1429               331.2626

                    82                     83                     84
                     A                      A                      A
 Frequencies --  1348.7442              1373.8112              1391.3009
 Red. masses --     4.3446                 4.7804                 4.8832
 Frc consts  --     4.6565                 5.3158                 5.5692
 IR Inten    --  1294.6231                 3.7553                 3.9940

                    85                     86                     87
                     A                      A                      A
 Frequencies --  1392.5539              1404.5016              1409.6783
 Red. masses --     4.6557                 2.3456                 2.1699
 Frc consts  --     5.3194                 2.7262                 2.5405
 IR Inten    --   135.6956                 4.6913                62.2102

                    88                     89                     90
                     A                      A                      A
 Frequencies --  1433.3810              1443.8670              1451.0383
 Red. masses --     4.9317                 3.9487                 6.3110
 Frc consts  --     5.9699                 4.8502                 7.8290
 IR Inten    --     0.9015               537.2746                 2.6090

                    91                     92                     93
                     A                      A                      A
 Frequencies --  1466.2323              1471.4981              1529.3971
 Red. masses --     4.5186                 5.1213                 3.6449
 Frc consts  --     5.7235                 6.5335                 5.0231
 IR Inten    --   709.9478                 6.2894                48.5437

                    94                     95                     96
                     A                      A                      A
 Frequencies --  1532.1874              1543.6269              1551.5242
 Red. masses --     3.7597                 5.4872                 4.3738
 Frc consts  --     5.2002                 7.7035                 6.2033
 IR Inten    --     2.4851                 0.0441               523.9077

                    97                     98                     99
                     A                      A                      A
 Frequencies --  1555.8631              1560.3858              1618.0931
 Red. masses --     4.6410                 6.6603                 4.6434
 Frc consts  --     6.6191                 9.5545                 7.1630
 IR Inten    --     0.2350              1032.4754                 2.5130

                   100                    101                    102
                     A                      A                      A
 Frequencies --  1618.9710              1766.3795              1777.9707
 Red. masses --     4.6293                10.1075                11.1710
 Frc consts  --     7.1489                18.5807                20.8062
 IR Inten    --    27.1906               692.6623                 2.4212

                   103                    104                    105
                     A                      A                      A
 Frequencies --  3204.2804              3204.4209              3210.9777
 Red. masses --     1.0894                 1.0895                 1.0925
 Frc consts  --     6.5903                 6.5912                 6.6365
 IR Inten    --     0.0647                 0.0375                11.0262

                   106                    107                    108
                     A                      A                      A
 Frequencies --  3211.0696              3225.2045              3225.2390
 Red. masses --     1.0924                 1.0964                 1.0964
 Frc consts  --     6.6367                 6.7193                 6.7196
 IR Inten    --     0.1200                 9.7252                 0.0900

                   109                    110                    111
                     A                      A                      A
 Frequencies --  3265.7544              3265.7862              3277.8476
 Red. masses --     1.0942                 1.0942                 1.0934
 Frc consts  --     6.8759                 6.8760                 6.9219
 IR Inten    --    46.7927                 0.0634                11.7084

                   112                    113                    114
                     A                      A                      A
 Frequencies --  3277.8905              3637.2319              3637.4531
 Red. masses --     1.0935                 1.0801                 1.0801
 Frc consts  --     6.9222                 8.4188                 8.4202
 IR Inten    --     2.1938               115.2434                 3.8035

 - Thermochemistry -
 -------------------
 Temperature   298.150 Kelvin.  Pressure   1.00000 Atm.
 Atom     1 has atomic number  7 and mass  14.00307

 Molecular mass:   400.03402 amu.
 Principal axes and moments of inertia in atomic units:
                           1         2         3
     Eigenvalues --  4244.65767********************
           X            0.99997  -0.00806   0.00001
           Y            0.00806   0.99997  -0.00011
           Z           -0.00001   0.00011   1.00000
 This molecule is an asymmetric top.
 Rotational symmetry number  1.
 Warning -- assumption of classical behavior for rotation
           may cause significant error
 Rotational temperatures (Kelvin)      0.02041     0.00327     0.00289
 Rotational constants (GHZ):           0.42518     0.06808     0.06028
 Zero-point vibrational energy     752435.9 (Joules/Mol)
                                  179.83650 (Kcal/Mol)
 Warning -- explicit consideration of  35 degrees of freedom as
           vibrations may cause significant error
 Vibrational temperatures:     26.89    50.56    67.00    74.08   115.38
          (Kelvin)            134.50   170.24   223.43   229.66   232.62
                              265.81   265.81   310.27   348.30   355.49
                              360.65   400.30   449.47   509.15   546.54
                              576.59   629.39   630.83   655.60   663.88
                              722.65   723.06   749.02   758.02   789.63
                              813.43   813.67   829.95   834.99   848.55
                              916.80   965.14   968.68   974.35   984.32
                              998.59  1010.98  1011.24  1056.41  1061.46
                             1082.23  1083.36  1115.76  1132.48  1139.52
                             1141.02  1177.99  1199.93  1200.52  1230.74
                             1264.03  1292.07  1292.64  1294.70  1303.79
                             1368.27  1394.38  1394.74  1442.99  1454.89
                             1457.61  1548.91  1580.51  1581.97  1602.36
                             1629.70  1707.90  1711.44  1713.60  1748.87
                             1771.91  1783.33  1783.75  1853.55  1912.46
                             1915.04  1940.54  1976.61  2001.77  2003.57
                             2020.76  2028.21  2062.31  2077.40  2087.72
                             2109.58  2117.15  2200.46  2204.47  2220.93
                             2232.29  2238.54  2245.04  2328.07  2329.34
                             2541.42  2558.10  4610.24  4610.44  4619.87
                             4620.01  4640.34  4640.39  4698.69  4698.73
                             4716.09  4716.15  5233.16  5233.48

 Zero-point correction=                           0.286588 (Hartree/Particle)
 Thermal correction to Energy=                    0.307820
 Thermal correction to Enthalpy=                  0.308764
 Thermal correction to Gibbs Free Energy=         0.234603
 Sum of electronic and zero-point Energies=          -1901.430001
 Sum of electronic and thermal Energies=             -1901.408769
 Sum of electronic and thermal Enthalpies=           -1901.407825
 Sum of electronic and thermal Free Energies=        -1901.481986

                     E (Thermal)             CV                S
                      KCal/Mol        Cal/Mol-Kelvin    Cal/Mol-Kelvin
 Total                  193.160             85.790            156.085
 Electronic               0.000              0.000              1.377
 Translational            0.889              2.981             43.851
 Rotational               0.889              2.981             36.464
 Vibrational            191.382             79.829             74.393
 Vibration     1          0.593              1.986              6.769
 Vibration     2          0.594              1.982              5.516
 Vibration     3          0.595              1.979              4.958
 Vibration     4          0.596              1.977              4.759
 Vibration     5          0.600              1.963              3.886
 Vibration     6          0.602              1.954              3.586
 Vibration     7          0.608              1.934              3.128
 Vibration     8          0.620              1.897              2.606
 Vibration     9          0.621              1.892              2.554
 Vibration    10          0.622              1.889              2.530
 Vibration    11          0.631              1.861              2.280
 Vibration    12          0.631              1.861              2.280
 Vibration    13          0.645              1.817              1.995
 Vibration    14          0.658              1.776              1.788
 Vibration    15          0.661              1.768              1.751
 Vibration    16          0.663              1.762              1.726
 Vibration    17          0.679              1.714              1.545
 Vibration    18          0.701              1.650              1.350
 Vibration    19          0.730              1.567              1.149
 Vibration    20          0.750              1.513              1.040
 Vibration    21          0.767              1.469              0.960
 Vibration    22          0.798              1.389              0.835
 Vibration    23          0.799              1.386              0.831
 Vibration    24          0.814              1.348              0.779
 Vibration    25          0.819              1.336              0.762
 Vibration    26          0.858              1.245              0.652
 Vibration    27          0.858              1.244              0.652
 Vibration    28          0.876              1.204              0.609
 Vibration    29          0.882              1.191              0.594
 Vibration    30          0.904              1.142              0.547
 Vibration    31          0.921              1.106              0.513
 Vibration    32          0.921              1.106              0.513
 Vibration    33          0.933              1.081              0.491
 Vibration    34          0.937              1.074              0.485
 Vibration    35          0.947              1.054              0.468

 Optimization completed.
    -- Stationary point found.
 Normal termination of Gaussian 09 at Thu Sep 14 18:19:20 2023.
