 Gaussian 09, Revision A.02,
 Gaussian 09:  EM64L-G09RevA.02 11-Jun-2009

 ---------------------------------------------------------
 # td=(nstates=10) cam-b3lyp/6-31+g(d,p) geom=connectivity
 ---------------------------------------------------------

 -------
 Energy:
 -------
 Symbolic Z-matrix:
 Charge =  0 Multiplicity = 1

                         Standard orientation:
 ---------------------------------------------------------------------
 Center     Atomic      Atomic             Coordinates (Angstroms)
 Number     Number       Type             X           Y           Z
 ---------------------------------------------------------------------
      1          7           0        1.452167   -1.548609   -0.169803
      2          6           0        0.055367   -1.813118   -0.242823
      3          6           0        1.746381   -0.184711   -0.203885
      4          6           0        0.527214    0.478389   -0.263054
      5          6           0       -0.527214   -0.478380   -0.263055
      6          6           0       -1.746381    0.184716   -0.203887
      7          6           0       -0.055370    1.813127   -0.242819
      8          7           0       -1.452170    1.548614   -0.169796
      9          8           0       -0.431881   -2.934805   -0.296645
     10          8           0        0.431875    2.934814   -0.296644
     11          1           0       -2.123189    2.286168   -0.326266
     12          1           0        2.123187   -2.286165   -0.326257
     13          6           0       -5.397842   -0.609498    0.028047
     14          6           0       -4.293400    0.308732    0.201104
     15          6           0       -4.558563    1.608077    0.722505
     16          1           0       -3.753941    2.302133    0.936398
     17          6           0       -5.856113    1.968508    1.007721
     18          1           0       -6.058001    2.955689    1.412196
     19          6           0       -6.944776    1.068600    0.800134
     20          1           0       -7.952344    1.397270    1.035981
     21          6           0       -6.731303   -0.202142    0.327983
     22          6           0       -3.084353   -0.327889   -0.162160
     23         16           0       -3.461077   -1.958445   -0.629840
     24          7           0       -5.088768   -1.838469   -0.413517
     25          6           0        5.397843    0.609494    0.028049
     26          6           0        4.293399   -0.308733    0.201111
     27          6           0        4.558561   -1.608079    0.722509
     28          1           0        3.753940   -2.302135    0.936405
     29          6           0        5.856112   -1.968514    1.007719
     30          1           0        6.057998   -2.955696    1.412189
     31          6           0        6.944776   -1.068607    0.800130
     32          1           0        7.952344   -1.397281    1.035974
     33          6           0        6.731303    0.202136    0.327983
     34          6           0        3.084353    0.327890   -0.162154
     35         16           0        3.461081    1.958443   -0.629838
     36          7           0        5.088772    1.838464   -0.413522
     37          1           0       -7.540683   -0.909280    0.182022
     38          1           0        7.540684    0.909273    0.182021
 ---------------------------------------------------------------------

 SCF Done:  E(RCAM-B3LYP) =  -1933.43511605     A.U. after   36 cycles

 Excitation energies and oscillator strengths:

 Excited State   1:      Singlet-A      2.3423 eV  529.33 nm  f=0.7968  <S**2>=0.000
     103 ->104         0.69979
 This state for optimization and/or second-order correction.
 Copying the excited state density for this state as the 1-particle RhoCI density.

 Excited State   2:      Singlet-A      3.3478 eV  370.35 nm  f=0.0004  <S**2>=0.000
     102 ->104         0.26992
     103 ->105         0.63863

 Excited State   3:      Singlet-A      3.5204 eV  352.18 nm  f=0.0000  <S**2>=0.000
      97 ->104         0.10993
      98 ->104         0.10187
     100 ->104         0.10410
     101 ->105         0.18001
     102 ->104         0.58795
     103 ->105        -0.25954

 Excited State   4:      Singlet-A      3.6917 eV  335.85 nm  f=0.1587  <S**2>=0.000
     101 ->104         0.65943
     102 ->105         0.22535

 Excited State   5:      Singlet-A      3.8054 eV  325.81 nm  f=0.0012  <S**2>=0.000
      96 ->105        -0.10384
      98 ->104         0.59141
      98 ->106        -0.15924
     100 ->104         0.23712
     102 ->104        -0.14102

 Excited State   6:      Singlet-A      3.9329 eV  315.25 nm  f=0.0008  <S**2>=0.000
      97 ->104         0.61695
      97 ->106        -0.15936
      98 ->104        -0.12065
     100 ->104         0.20573
     102 ->104        -0.10865

 Excited State   7:      Singlet-A      3.9735 eV  312.03 nm  f=0.0712  <S**2>=0.000
      96 ->104        -0.13887
      99 ->104         0.50072
     100 ->105         0.20844
     102 ->105        -0.12059
     103 ->106        -0.37237

 Excited State   8:      Singlet-A      4.1178 eV  301.09 nm  f=0.0196  <S**2>=0.000
      97 ->104        -0.24711
      98 ->104        -0.22073
      99 ->105         0.24552
     100 ->104         0.53071
     103 ->107         0.10895

 Excited State   9:      Singlet-A      4.2230 eV  293.59 nm  f=0.0654  <S**2>=0.000
      96 ->104         0.45859
      96 ->106        -0.13076
      98 ->105        -0.15016
      98 ->107        -0.10773
      99 ->104        -0.16134
     102 ->105        -0.12342
     103 ->106        -0.40227

 Excited State  10:      Singlet-A      4.2998 eV  288.35 nm  f=0.1839  <S**2>=0.000
      96 ->104         0.38388
      98 ->105        -0.13175
      99 ->104         0.35926
     100 ->105         0.14986
     102 ->105         0.11487
     103 ->106         0.35166

 The electronic state is 1-A.
 Alpha  occ. eigenvalues --  -89.04321 -89.04321 -19.22766 -19.22766 -14.48124
 Alpha  occ. eigenvalues --  -14.48124 -14.45191 -14.45191 -10.40164 -10.40164
 Alpha  occ. eigenvalues --  -10.37282 -10.37281 -10.34208 -10.34208 -10.32898
 Alpha  occ. eigenvalues --  -10.32898 -10.31454 -10.31454 -10.30211 -10.30211
 Alpha  occ. eigenvalues --  -10.29812 -10.29812 -10.29543 -10.29543 -10.29362
 Alpha  occ. eigenvalues --  -10.29362 -10.29203 -10.29157  -8.09836  -8.09836
 Alpha  occ. eigenvalues --   -6.06437  -6.06437  -6.05906  -6.05906  -6.05692
 Alpha  occ. eigenvalues --   -6.05692  -1.15285  -1.14683  -1.08376  -1.07724
 Alpha  occ. eigenvalues --   -1.07148  -1.06396  -0.95546  -0.95522  -0.92403
 Alpha  occ. eigenvalues --   -0.92148  -0.91449  -0.85972  -0.85079  -0.85051
 Alpha  occ. eigenvalues --   -0.84748  -0.81783  -0.79074  -0.77652  -0.73076
 Alpha  occ. eigenvalues --   -0.72669  -0.70816  -0.69439  -0.69157  -0.67980
 Alpha  occ. eigenvalues --   -0.65699  -0.63584  -0.62855  -0.61740  -0.58584
 Alpha  occ. eigenvalues --   -0.57782  -0.56895  -0.56417  -0.56279  -0.56262
 Alpha  occ. eigenvalues --   -0.55203  -0.55064  -0.53279  -0.52816  -0.52812
 Alpha  occ. eigenvalues --   -0.52295  -0.51840  -0.51658  -0.51403  -0.50814
 Alpha  occ. eigenvalues --   -0.48334  -0.45869  -0.45727  -0.45237  -0.45155
 Alpha  occ. eigenvalues --   -0.45141  -0.43655  -0.43439  -0.43287  -0.42966
 Alpha  occ. eigenvalues --   -0.42764  -0.38134  -0.37841  -0.37817  -0.37661
 Alpha  occ. eigenvalues --   -0.36252  -0.35050  -0.34577  -0.32679  -0.32654
 Alpha  occ. eigenvalues --   -0.31272  -0.30052  -0.25412
 Alpha virt. eigenvalues --   -0.10036  -0.05772  -0.02434   0.01263   0.01681
 Alpha virt. eigenvalues --    0.02115   0.03199   0.03290   0.03440   0.03793
 Alpha virt. eigenvalues --    0.03859   0.03979   0.04103   0.04619   0.04716

 Mulliken atomic charges:
              1
     1  N   -0.408279
     2  C    0.445135
     3  C    0.477677
     4  C   -0.251957
     5  C   -0.251945
     6  C    0.477699
     7  C    0.445143
     8  N   -0.408278
     9  O   -0.535955
    10  O   -0.535953
    11  H    0.311235
    12  H    0.311235
    13  C   -1.554315
    14  C    1.497841
    15  C    0.103243
    16  H    0.127576
    17  C   -0.198041
    18  H    0.143366
    19  C   -0.242551
    20  H    0.143694
    21  C   -0.802209
    22  C   -0.148769
    23  S    1.064214
    24  N   -0.329326
    25  C   -1.554336
    26  C    1.497869
    27  C    0.103232
    28  H    0.127575
    29  C   -0.198032
    30  H    0.143365
    31  C   -0.242553
    32  H    0.143694
    33  C   -0.802208
    34  C   -0.148774
    35  S    1.064218
    36  N   -0.329324
    37  H    0.157396
    38  H    0.157396
 Sum of Mulliken atomic charges =   0.00000

 Dipole moment (field-independent basis, Debye):
    X=              0.0000    Y=              0.0000    Z=              1.2891  Tot=              1.2891
 Quadrupole moment (field-independent basis, Debye-Ang):
   XX=           -141.8319   YY=           -188.6354   ZZ=           -176.1185
   XY=            -33.4190   XZ=              0.0001   YZ=              0.0000

 Normal termination of Gaussian 09 at Sun Aug 11 09:53:00 2019.
